 Entering Gaussian System, Link 0=/opt/g09/g09
 Input=opt2.gjf
 Output=opt2.log
 Initial command:
 /opt/g09/l1.exe /home/serv/scratch/Gau-3987.inp -scrdir=/home/serv/scratch/
 Entering Link 1 = /opt/g09/l1.exe PID=      3988.
  
 Copyright (c) 1988,1990,1992,1993,1995,1998,2003,2009, Gaussian, Inc.
                  All Rights Reserved.
  
 This is part of the Gaussian(R) 09 program.  It is based on
 the Gaussian(R) 03 system (copyright 2003, Gaussian, Inc.),
 the Gaussian(R) 98 system (copyright 1998, Gaussian, Inc.),
 the Gaussian(R) 94 system (copyright 1995, Gaussian, Inc.),
 the Gaussian 92(TM) system (copyright 1992, Gaussian, Inc.),
 the Gaussian 90(TM) system (copyright 1990, Gaussian, Inc.),
 the Gaussian 88(TM) system (copyright 1988, Gaussian, Inc.),
 the Gaussian 86(TM) system (copyright 1986, Carnegie Mellon
 University), and the Gaussian 82(TM) system (copyright 1983,
 Carnegie Mellon University). Gaussian is a federally registered
 trademark of Gaussian, Inc.
  
 This software contains proprietary and confidential information,
 including trade secrets, belonging to Gaussian, Inc.
  
 This software is provided under written license and may be
 used, copied, transmitted, or stored only in accord with that
 written license.
  
 The following legend is applicable only to US Government
 contracts under FAR:
  
                    RESTRICTED RIGHTS LEGEND
  
 Use, reproduction and disclosure by the US Government is
 subject to restrictions as set forth in subparagraphs (a)
 and (c) of the Commercial Computer Software - Restricted
 Rights clause in FAR 52.227-19.
  
 Gaussian, Inc.
 340 Quinnipiac St., Bldg. 40, Wallingford CT 06492
  
  
 ---------------------------------------------------------------
 Warning -- This program may not be used in any manner that
 competes with the business of Gaussian, Inc. or will provide
 assistance to any competitor of Gaussian, Inc.  The licensee
 of this program is prohibited from giving any competitor of
 Gaussian, Inc. access to this program.  By using this program,
 the user acknowledges that Gaussian, Inc. is engaged in the
 business of creating and licensing software in the field of
 computational chemistry and represents and warrants to the
 licensee that it is not a competitor of Gaussian, Inc. and that
 it will not use this program in any manner prohibited above.
 ---------------------------------------------------------------
  

 Cite this work as:
 Gaussian 09, Revision A.01,
 M. J. Frisch, G. W. Trucks, H. B. Schlegel, G. E. Scuseria, 
 M. A. Robb, J. R. Cheeseman, G. Scalmani, V. Barone, B. Mennucci, 
 G. A. Petersson, H. Nakatsuji, M. Caricato, X. Li, H. P. Hratchian, 
 A. F. Izmaylov, J. Bloino, G. Zheng, J. L. Sonnenberg, M. Hada, 
 M. Ehara, K. Toyota, R. Fukuda, J. Hasegawa, M. Ishida, T. Nakajima, 
 Y. Honda, O. Kitao, H. Nakai, T. Vreven, J. A. Montgomery, Jr., 
 J. E. Peralta, F. Ogliaro, M. Bearpark, J. J. Heyd, E. Brothers, 
 K. N. Kudin, V. N. Staroverov, R. Kobayashi, J. Normand, 
 K. Raghavachari, A. Rendell, J. C. Burant, S. S. Iyengar, J. Tomasi, 
 M. Cossi, N. Rega, J. M. Millam, M. Klene, J. E. Knox, J. B. Cross, 
 V. Bakken, C. Adamo, J. Jaramillo, R. Gomperts, R. E. Stratmann, 
 O. Yazyev, A. J. Austin, R. Cammi, C. Pomelli, J. W. Ochterski, 
 R. L. Martin, K. Morokuma, V. G. Zakrzewski, G. A. Voth, 
 P. Salvador, J. J. Dannenberg, S. Dapprich, A. D. Daniels, 
 O. Farkas, J. B. Foresman, J. V. Ortiz, J. Cioslowski, 
 and D. J. Fox, Gaussian, Inc., Wallingford CT, 2009.
 
 ******************************************
 Gaussian 09:  EM64L-G09RevA.01  8-May-2009
                 4-Oct-2016 
 ******************************************
 %chk=d4.chk
 %mem=16GB
 %nprocshared=8
 Will use up to    8 processors via shared memory.
 ----------------------------------------------------------
 #p pbe1pbe/6-311g(d,p) 6D 10F ADMP(MaxPoints=100, FullSCF)
 ----------------------------------------------------------
 1/14=-1,26=3,29=20000,38=1,42=100,75=1/1,21;
 2/12=2,17=6,18=5,29=2,40=1/2;
 3/5=4,6=6,7=101,8=22,11=2,16=1,25=1,30=1,65=-1,71=1,74=-13,89=400,90=600/1,2,3;
 4//1;
 5/5=2,14=200,38=5/2;
 6/7=2,8=2,9=2,10=2,28=1/1;
 7/7=1/1,2,3,16;
 1/14=-1,42=100,75=1/21(2);
 2/29=1/2;
 99/12=1/99;
 2/29=1/2;
 3/5=4,6=6,7=101,8=22,11=2,16=1,25=1,30=1,65=-1,71=1,74=-13,89=400,90=600/1,2,3;
 4/5=5,16=3/1;
 5/5=2,14=200/2;
 7/7=1/1,2,3,16;
 1/14=-1,42=100,75=1/21(-5);
 2/29=1/2;
 6/7=2,8=2,9=2,10=2,19=2,28=1/1;
 99/9=1,12=1/99;
 Leave Link    1 at Tue Oct  4 11:53:02 2016, MaxMem= 2147483648 cpu:       0.3
 (Enter /opt/g09/l101.exe)
 --
 d4
 --
 Symbolic Z-matrix:
 Charge =  0 Multiplicity = 1
 Si                    2.29444  -0.00008   0.00003 
 Si                    0.00009   2.2388    0.07843 
 Si                   -2.29445   0.00009   0.00002 
 Si                   -0.00009  -2.2388   -0.07849 
 O                     1.34405   1.31235   0.29356 
 O                     1.34395  -1.31243  -0.29353 
 O                    -1.34406  -1.31234  -0.29355 
 O                    -1.34395   1.31245   0.29353 
 C                     3.32958  -0.30528   1.51735 
 C                     3.32967   0.30502  -1.51724 
 C                     0.00012   3.56754   1.37804 
 C                     0.00014   2.93182  -1.65411 
 C                    -3.32967   0.30527  -1.51723 
 C                    -3.32958  -0.30503   1.51736 
 C                    -0.00013  -3.56745  -1.37818 
 C                    -0.00013  -2.93192   1.65401 
 H                     3.9663    0.55718   1.73549 
 H                     3.97484  -1.17896   1.3861 
 H                     2.69469  -0.48162   2.39047 
 H                     2.69485   0.48158  -2.39036 
 H                     3.9662   -0.55757  -1.73545 
 H                     3.97514   1.17854  -1.38589 
 H                     0.00014   3.12363   2.37737 
 H                    -0.88576   4.20313   1.29014 
 H                     0.88601   4.20312   1.2901 
 H                     0.88518   3.55045  -1.83087 
 H                    -0.88483   3.55057  -1.83088 
 H                     0.00009   2.12878  -2.39767 
 H                    -3.9664   -0.5572   -1.73533 
 H                    -3.97494   1.17894  -1.38595 
 H                    -2.69484   0.48161  -2.39039 
 H                    -2.6947   -0.48157   2.39044 
 H                    -3.96611   0.55756   1.7356 
 H                    -3.97504  -1.17855   1.38606 
 H                    -0.00015  -3.12349  -2.37747 
 H                     0.88576  -4.20305  -1.29031 
 H                    -0.88601  -4.20305  -1.29027 
 H                    -0.88518  -3.55056   1.83074 
 H                     0.88484  -3.55068   1.83074 
 H                    -0.00008  -2.12893   2.39763 
 
 NAtoms=     40 NQM=     40 NQMF=      0 NMic=      0 NMicF=      0 NTot=     40.
                    Isotopes and Nuclear Properties:
 (Nuclear quadrupole moments (NQMom) in fm**2, nuclear magnetic moments (NMagM)
  in nuclear magnetons)

  Atom         1           2           3           4           5           6           7           8           9          10
 IAtWgt=          28          28          28          28          16          16          16          16          12          12
 AtmWgt=  27.9769284  27.9769284  27.9769284  27.9769284  15.9949146  15.9949146  15.9949146  15.9949146  12.0000000  12.0000000
 NucSpn=           0           0           0           0           0           0           0           0           0           0
 AtZEff=   0.0000000   0.0000000   0.0000000   0.0000000   0.0000000   0.0000000   0.0000000   0.0000000   0.0000000   0.0000000
 NQMom=    0.0000000   0.0000000   0.0000000   0.0000000   0.0000000   0.0000000   0.0000000   0.0000000   0.0000000   0.0000000
 NMagM=    0.0000000   0.0000000   0.0000000   0.0000000   0.0000000   0.0000000   0.0000000   0.0000000   0.0000000   0.0000000

  Atom        11          12          13          14          15          16          17          18          19          20
 IAtWgt=          12          12          12          12          12          12           1           1           1           1
 AtmWgt=  12.0000000  12.0000000  12.0000000  12.0000000  12.0000000  12.0000000   1.0078250   1.0078250   1.0078250   1.0078250
 NucSpn=           0           0           0           0           0           0           1           1           1           1
 AtZEff=   0.0000000   0.0000000   0.0000000   0.0000000   0.0000000   0.0000000   0.0000000   0.0000000   0.0000000   0.0000000
 NQMom=    0.0000000   0.0000000   0.0000000   0.0000000   0.0000000   0.0000000   0.0000000   0.0000000   0.0000000   0.0000000
 NMagM=    0.0000000   0.0000000   0.0000000   0.0000000   0.0000000   0.0000000   2.7928460   2.7928460   2.7928460   2.7928460

  Atom        21          22          23          24          25          26          27          28          29          30
 IAtWgt=           1           1           1           1           1           1           1           1           1           1
 AtmWgt=   1.0078250   1.0078250   1.0078250   1.0078250   1.0078250   1.0078250   1.0078250   1.0078250   1.0078250   1.0078250
 NucSpn=           1           1           1           1           1           1           1           1           1           1
 AtZEff=   0.0000000   0.0000000   0.0000000   0.0000000   0.0000000   0.0000000   0.0000000   0.0000000   0.0000000   0.0000000
 NQMom=    0.0000000   0.0000000   0.0000000   0.0000000   0.0000000   0.0000000   0.0000000   0.0000000   0.0000000   0.0000000
 NMagM=    2.7928460   2.7928460   2.7928460   2.7928460   2.7928460   2.7928460   2.7928460   2.7928460   2.7928460   2.7928460

  Atom        31          32          33          34          35          36          37          38          39          40
 IAtWgt=           1           1           1           1           1           1           1           1           1           1
 AtmWgt=   1.0078250   1.0078250   1.0078250   1.0078250   1.0078250   1.0078250   1.0078250   1.0078250   1.0078250   1.0078250
 NucSpn=           1           1           1           1           1           1           1           1           1           1
 AtZEff=   0.0000000   0.0000000   0.0000000   0.0000000   0.0000000   0.0000000   0.0000000   0.0000000   0.0000000   0.0000000
 NQMom=    0.0000000   0.0000000   0.0000000   0.0000000   0.0000000   0.0000000   0.0000000   0.0000000   0.0000000   0.0000000
 NMagM=    2.7928460   2.7928460   2.7928460   2.7928460   2.7928460   2.7928460   2.7928460   2.7928460   2.7928460   2.7928460
 Leave Link  101 at Tue Oct  4 11:53:02 2016, MaxMem= 2147483648 cpu:       0.9
 (Enter /opt/g09/l121.exe)
 TRJ-TRJ-TRJ-TRJ-TRJ-TRJ-TRJ-TRJ-TRJ-TRJ-TRJ-TRJ-TRJ-TRJ-TRJ-TRJ-TRJ-TRJ
 ------------------------------------------------------------------------
 INPUT DATA FOR L121
 ------------------------------------------------------------------------

 General parameters:
 Maximum Steps                =     100
 Random Number Generator Seed =  398465
 Time Step                    =  0.10000 femtosec
 Ficticious electronic mass   =  0.10000 amu
 MW individual basis funct.   = True 
 Initial nuclear kin. energy  =  0.10000 hartree
 Initial electr. kin. energy  =  0.00000 hartree
   Initial electr. KE scheme  =  0
 Multitime step - NDtrC       =       1
 Multitime step - NDtrP       =       1
 No Thermostats chosen to control nuclear temperature

 Integration parameters:

 Follow Rxn Path (DVV)        = False
 Read in converged density
 Projection of angular mom.   = True 
 Rotate density with nuclei   = True 
 ------------------------------------------------------------------------
 TRJ-TRJ-TRJ-TRJ-TRJ-TRJ-TRJ-TRJ-TRJ-TRJ-TRJ-TRJ-TRJ-TRJ-TRJ-TRJ-TRJ-TRJ
 Leave Link  121 at Tue Oct  4 11:53:03 2016, MaxMem= 2147483648 cpu:       0.0
 (Enter /opt/g09/l202.exe)
 ---------------------------------------------------------------------------------------------------
                            Z-MATRIX (ANGSTROMS AND DEGREES)
   CD    Cent   Atom    N1       Length/X        N2       Alpha/Y        N3        Beta/Z          J
 ---------------------------------------------------------------------------------------------------
      1      1  Si       0   2.294444         -0.000084          0.000032
      2      2  Si       0   0.000089          2.238804          0.078433
      3      3  Si       0  -2.294445          0.000088          0.000024
      4      4  Si       0  -0.000089         -2.238801         -0.078490
      5      5  O        0   1.344054          1.312351          0.293556
      6      6  O        0   1.343947         -1.312431         -0.293532
      7      7  O        0  -1.344055         -1.312335         -0.293552
      8      8  O        0  -1.343948          1.312449          0.293526
      9      9  C        0   3.329577         -0.305283          1.517348
     10     10  C        0   3.329672          0.305021         -1.517237
     11     11  C        0   0.000123          3.567535          1.378044
     12     12  C        0   0.000135          2.931818         -1.654108
     13     13  C        0  -3.329671          0.305269         -1.517231
     14     14  C        0  -3.329580         -0.305025          1.517356
     15     15  C        0  -0.000126         -3.567454         -1.378180
     16     16  C        0  -0.000129         -2.931919          1.654009
     17     17  H        0   3.966300          0.557177          1.735491
     18     18  H        0   3.974841         -1.178960          1.386098
     19     19  H        0   2.694692         -0.481615          2.390469
     20     20  H        0   2.694846          0.481580         -2.390355
     21     21  H        0   3.966201         -0.557566         -1.735446
     22     22  H        0   3.975135          1.178537         -1.385894
     23     23  H        0   0.000143          3.123626          2.377365
     24     24  H        0  -0.885764          4.203130          1.290136
     25     25  H        0   0.886010          4.203124          1.290099
     26     26  H        0   0.885184          3.550452         -1.830869
     27     27  H        0  -0.884829          3.550570         -1.830876
     28     28  H        0   0.000085          2.128782         -2.397674
     29     29  H        0  -3.966397         -0.557199         -1.735334
     30     30  H        0  -3.974938          1.178939         -1.385946
     31     31  H        0  -2.694840          0.481606         -2.390390
     32     32  H        0  -2.694700         -0.481573          2.390437
     33     33  H        0  -3.966106          0.557555          1.735600
     34     34  H        0  -3.975040         -1.178550          1.386055
     35     35  H        0  -0.000149         -3.123486         -2.377474
     36     36  H        0   0.885762         -4.203054         -1.290312
     37     37  H        0  -0.886012         -4.203049         -1.290269
     38     38  H        0  -0.885177         -3.550564          1.830736
     39     39  H        0   0.884837         -3.550681          1.830737
     40     40  H        0  -0.000077         -2.128928          2.397625
 ---------------------------------------------------------------------------------------------------
                         Z-Matrix orientation:                         
 ---------------------------------------------------------------------
 Center     Atomic      Atomic             Coordinates (Angstroms)
 Number     Number       Type             X           Y           Z
 ---------------------------------------------------------------------
      1         14           0        2.294444   -0.000084    0.000032
      2         14           0        0.000089    2.238804    0.078433
      3         14           0       -2.294445    0.000088    0.000024
      4         14           0       -0.000089   -2.238801   -0.078490
      5          8           0        1.344054    1.312351    0.293556
      6          8           0        1.343947   -1.312431   -0.293532
      7          8           0       -1.344055   -1.312335   -0.293552
      8          8           0       -1.343948    1.312449    0.293526
      9          6           0        3.329577   -0.305283    1.517348
     10          6           0        3.329672    0.305021   -1.517237
     11          6           0        0.000123    3.567535    1.378044
     12          6           0        0.000135    2.931818   -1.654108
     13          6           0       -3.329671    0.305269   -1.517231
     14          6           0       -3.329580   -0.305025    1.517356
     15          6           0       -0.000126   -3.567454   -1.378180
     16          6           0       -0.000129   -2.931919    1.654009
     17          1           0        3.966300    0.557177    1.735491
     18          1           0        3.974841   -1.178960    1.386098
     19          1           0        2.694692   -0.481615    2.390469
     20          1           0        2.694846    0.481580   -2.390355
     21          1           0        3.966201   -0.557566   -1.735446
     22          1           0        3.975135    1.178537   -1.385894
     23          1           0        0.000143    3.123626    2.377365
     24          1           0       -0.885764    4.203130    1.290136
     25          1           0        0.886010    4.203124    1.290099
     26          1           0        0.885184    3.550452   -1.830869
     27          1           0       -0.884829    3.550570   -1.830876
     28          1           0        0.000085    2.128782   -2.397674
     29          1           0       -3.966397   -0.557199   -1.735334
     30          1           0       -3.974938    1.178939   -1.385946
     31          1           0       -2.694840    0.481606   -2.390390
     32          1           0       -2.694700   -0.481573    2.390437
     33          1           0       -3.966106    0.557555    1.735600
     34          1           0       -3.975040   -1.178550    1.386055
     35          1           0       -0.000149   -3.123486   -2.377474
     36          1           0        0.885762   -4.203054   -1.290312
     37          1           0       -0.886012   -4.203049   -1.290269
     38          1           0       -0.885177   -3.550564    1.830736
     39          1           0        0.884837   -3.550681    1.830737
     40          1           0       -0.000077   -2.128928    2.397625
 ---------------------------------------------------------------------
                    Distance matrix (angstroms):
                    1          2          3          4          5
     1  Si   0.000000
     2  Si   3.206685   0.000000
     3  Si   4.588889   3.206694   0.000000
     4  Si   3.206696   4.480354   3.206690   0.000000
     5  O    1.646780   1.646461   3.879030   3.815209   0.000000
     6  O    1.646778   3.815178   3.879018   1.646462   2.689638
     7  O    3.879029   3.815191   1.646779   1.646462   3.802578
     8  O    3.879018   1.646461   1.646778   3.815197   2.688002
     9  C    1.861960   4.430389   5.833108   4.167957   2.838434
    10  C    1.861959   4.167949   5.833160   4.430387   2.869907
    11  C    4.459903   1.858633   4.459895   5.986237   2.840444
    12  C    4.073829   1.866003   4.073855   5.405356   2.867436
    13  C    5.833181   4.167973   1.861959   4.430393   5.112423
    14  C    5.833087   4.430379   1.861960   4.167940   5.094747
    15  C    4.459893   5.986180   4.459899   1.858632   5.330480
    16  C    4.073863   5.405443   4.073846   1.866003   4.655265
    17  H    2.473350   4.615684   6.520669   5.180759   3.086363
    18  H    2.476825   5.402754   6.528040   4.366732   3.784352
    19  H    2.471085   4.472927   5.553175   4.055281   3.072390
    20  H    2.471087   4.055178   5.553267   4.473015   3.117402
    21  H    2.473346   5.180723   6.520623   4.615573   3.806454
    22  H    2.476825   4.366854   6.528181   5.402769   3.124267
    23  H    4.546767   2.463331   4.546798   5.898038   3.070680
    24  H    5.426334   2.472152   4.616745   6.645001   3.784424
    25  H    4.616808   2.472154   5.426334   6.645044   3.091839
    26  H    4.236097   2.479768   5.105614   6.113100   3.119750
    27  H    5.105599   2.479772   4.236170   6.113137   3.806672
    28  H    3.942734   2.478550   3.942735   4.945139   3.116975
    29  H    6.520736   5.180772   2.473350   4.615682   5.984355
    30  H    6.528107   4.366756   2.476824   5.402760   5.579445
    31  H    5.553296   4.055302   2.471084   4.472938   4.919997
    32  H    5.553146   4.472997   2.471088   4.055167   4.891483
    33  H    6.520555   4.615572   2.473347   5.180716   5.554008
    34  H    6.528114   5.402762   2.476826   4.366836   5.974186
    35  H    4.546794   5.897935   4.546758   2.463330   5.349573
    36  H    4.616744   6.644954   5.426333   2.472152   5.756593
    37  H    5.426333   6.644997   4.616806   2.472153   6.156406
    38  H    5.105622   6.113186   4.236115   2.479768   5.565998
    39  H    4.236179   6.113222   5.105615   2.479772   5.120829
    40  H    3.942747   4.945274   3.942756   2.478552   4.251611
                    6          7          8          9         10
     6  O    0.000000
     7  O    2.688002   0.000000
     8  O    3.802553   2.689638   0.000000
     9  C    2.869906   5.112372   5.094765   0.000000
    10  C    2.838434   5.094798   5.112387   3.095348   0.000000
    11  C    5.330488   5.330495   2.840443   5.109148   5.487490
    12  C    4.655174   4.655190   2.867437   5.623357   4.243184
    13  C    5.094811   2.838433   2.869904   7.343502   6.659343
    14  C    5.112342   2.869908   2.838436   6.659157   7.343470
    15  C    2.840444   2.840444   5.330470   5.487510   5.109105
    16  C    2.867437   2.867435   4.655258   4.243210   5.623358
    17  H    3.806456   5.984310   5.554137   1.094002   3.324021
    18  H    3.124192   5.579397   5.974140   1.094031   3.323823
    19  H    3.117472   4.919913   4.891467   1.093852   4.036355
    20  H    3.072470   4.891568   4.919900   4.036357   1.093852
    21  H    3.086285   5.554057   5.984260   3.324095   1.094002
    22  H    3.784353   5.974231   5.579519   3.323745   1.094031
    23  H    5.349589   5.349618   3.070721   4.856148   5.847925
    24  H    6.156381   5.756601   3.091796   6.176286   6.391126
    25  H    5.756643   6.156414   3.784425   5.133069   5.389604
    26  H    5.120693   5.565927   3.806671   5.661476   4.075133
    27  H    5.565936   5.120752   3.119785   6.621135   5.328600
    28  H    4.251509   4.251509   3.116951   5.686615   3.897104
    29  H    5.554181   3.086364   3.806454   7.992161   7.350076
    30  H    5.974180   3.784351   3.124189   7.999248   7.357873
    31  H    4.891542   3.072389   3.117469   7.223795   6.090018
    32  H    4.919826   3.117403   3.072472   6.089768   7.223690
    33  H    5.984220   3.806455   3.086285   7.349770   7.992065
    34  H    5.579477   3.124270   3.784355   7.357803   7.999307
    35  H    3.070721   3.070681   5.349538   5.847990   4.856169
    36  H    3.091796   3.784425   6.156373   5.389602   5.132926
    37  H    3.784425   3.091840   5.756634   6.391125   6.176261
    38  H    3.806671   3.119750   5.120779   5.328622   6.621134
    39  H    3.119786   3.806673   5.566016   4.075239   5.661500
    40  H    3.116953   3.116975   4.251623   3.897071   5.686605
                   11         12         13         14         15
    11  C    0.000000
    12  C    3.098077   0.000000
    13  C    5.487488   4.243242   0.000000
    14  C    5.109114   5.623374   3.095348   0.000000
    15  C    7.648846   6.505127   5.109128   5.487516   0.000000
    16  C    6.505310   6.732537   5.623344   4.243170   3.098076
    17  H    4.992052   5.732257   7.992174   7.349887   6.514604
    18  H    6.190934   6.476082   7.999259   7.357687   5.398750
    19  H    4.968030   5.938920   7.223729   6.089775   5.566611
    20  H    5.566460   3.715803   6.090011   7.223757   4.968103
    21  H    6.514603   5.283190   7.349956   7.992053   4.991875
    22  H    5.398832   4.352764   7.357991   7.999292   6.190896
    23  H    1.093480   4.036033   5.847963   4.856163   7.672983
    24  H    1.093849   3.327104   5.389556   5.132965   8.263549
    25  H    1.093848   3.327063   6.391114   6.176265   8.263585
    26  H    3.328776   1.094196   5.328657   6.621144   7.187022
    27  H    3.328753   1.094195   4.075243   5.661544   7.187065
    28  H    4.040552   1.094421   3.897134   5.686611   5.786750
    29  H    6.514586   5.283296   1.094002   3.324022   4.992044
    30  H    5.398717   4.352666   1.094031   3.323823   6.190916
    31  H    5.566586   3.715984   1.093852   4.036355   4.967991
    32  H    4.968127   5.939000   4.036357   1.093852   5.566495
    33  H    4.991873   5.732217   3.324095   1.094002   6.514624
    34  H    6.190905   6.476089   3.323746   1.094031   5.398870
    35  H    7.672918   6.098358   4.856140   5.847951   1.093479
    36  H    8.263567   7.198825   6.176273   6.391145   1.093849
    37  H    8.263601   7.198886   5.133022   5.389654   1.093848
    38  H    7.187212   7.412772   5.661438   4.075149   3.328775
    39  H    7.187256   7.412802   6.621127   5.328583   3.328752
    40  H    5.786989   6.482877   5.686617   3.897061   4.040552
                   16         17         18         19         20
    16  C    0.000000
    17  H    5.283274   0.000000
    18  H    4.352589   1.770966   0.000000
    19  H    3.715969   1.767787   1.770263   0.000000
    20  H    5.939002   4.317976   4.319419   4.876887   0.000000
    21  H    5.732166   3.645553   3.182804   4.318064   1.767788
    22  H    6.476078   3.182642   3.638919   4.319324   1.770263
    23  H    6.098596   4.767501   5.940798   4.500948   6.080542
    24  H    7.199005   6.085543   7.252695   5.998102   6.341665
    25  H    7.199063   4.793693   6.206200   5.140907   5.537826
    26  H    7.412779   5.583180   6.500938   6.111594   3.606366
    27  H    7.412812   6.724048   7.505582   6.847718   4.748241
    28  H    6.482810   5.940022   6.407556   6.082877   3.158333
    29  H    5.732209   8.730186   8.555302   7.835692   6.773498
    30  H    6.476078   8.555303   8.743163   7.842367   6.780941
    31  H    5.938921   7.835776   7.842448   7.268525   5.389686
    32  H    3.715809   6.773247   6.780695   5.389392   7.268483
    33  H    5.283186   7.932406   8.136109   6.773105   7.835659
    34  H    4.352703   8.136322   7.949881   6.780847   7.842492
    35  H    4.036032   6.796799   5.809148   6.080702   4.501074
    36  H    3.327103   6.426896   5.084361   5.538004   5.140883
    37  H    3.327061   7.440424   6.319489   6.341793   5.998207
    38  H    1.094196   6.357628   5.426047   4.748390   6.847800
    39  H    1.094196   5.136047   3.920573   3.606666   6.111700
    40  H    1.094422   4.835879   4.210178   3.158397   6.082936
                   21         22         23         24         25
    21  H    0.000000
    22  H    1.770966   0.000000
    23  H    6.796764   5.809135   0.000000
    24  H    7.440426   6.319623   1.769810   0.000000
    25  H    6.426949   5.084462   1.769809   1.771774   0.000000
    26  H    5.135911   3.920686   4.321425   3.647316   3.188483
    27  H    6.357545   5.426214   4.321429   3.188503   3.647216
    28  H    4.835813   4.210426   4.877572   4.322915   4.322896
    29  H    7.932598   8.136511   6.796779   6.426858   7.440415
    30  H    8.136295   7.950073   5.809095   5.084303   6.319472
    31  H    6.773352   6.781098   6.080682   5.537939   6.341781
    32  H    7.835578   7.842407   4.501090   5.140949   5.998218
    33  H    8.730014   8.555270   4.767359   4.793450   6.085366
    34  H    8.555273   8.743274   5.940833   6.206070   7.252684
    35  H    4.767397   5.940835   7.850790   8.241054   8.241091
    36  H    4.793415   6.206036   8.241142   8.970003   8.793313
    37  H    6.085368   7.252680   8.241176   8.793312   8.970067
    38  H    6.723954   7.505580   6.754806   7.772517   7.971767
    39  H    5.583118   6.500935   6.754840   7.971754   7.772630
    40  H    5.939934   6.407546   5.252593   6.488908   6.488963
                   26         27         28         29         30
    26  H    0.000000
    27  H    1.770013   0.000000
    28  H    1.767997   1.767997   0.000000
    29  H    6.357654   5.136045   4.835925   0.000000
    30  H    5.426124   3.920634   4.210297   1.770966   0.000000
    31  H    4.748416   3.606624   3.158459   1.767787   1.770263
    32  H    6.847789   6.111734   6.082913   4.317976   4.319419
    33  H    6.723998   5.583203   5.939981   3.645553   3.182805
    34  H    7.505587   6.500971   6.407548   3.182644   3.638921
    35  H    6.754557   6.754587   5.252307   4.767525   5.940786
    36  H    7.772326   7.971567   6.488669   6.085536   7.252682
    37  H    7.971585   7.772443   6.488728   4.793650   6.206159
    38  H    8.183273   7.989587   7.135693   5.583100   6.500913
    39  H    7.989584   8.183330   7.135723   6.724007   7.505582
    40  H    7.135769   7.135804   6.412721   5.939981   6.407567
                   31         32         33         34         35
    31  H    0.000000
    32  H    4.876886   0.000000
    33  H    4.318064   1.767787   0.000000
    34  H    4.319325   1.770263   1.770966   0.000000
    35  H    4.500913   6.080566   6.796783   5.809190   0.000000
    36  H    5.998076   6.341691   7.440441   6.319649   1.769810
    37  H    5.140828   5.537900   6.426991   5.084525   1.769809
    38  H    6.111561   3.606431   5.135934   3.920643   4.321424
    39  H    6.847725   4.748239   6.357539   5.426154   4.321427
    40  H    6.082904   3.158294   4.835789   4.210323   4.877573
                   36         37         38         39         40
    36  H    0.000000
    37  H    1.771774   0.000000
    38  H    3.647315   3.188481   0.000000
    39  H    3.188501   3.647214   1.770014   0.000000
    40  H    4.322914   4.322895   1.767997   1.767998   0.000000
 Symmetry turned off by external request.
 Stoichiometry    C8H24O4Si4
 Framework group  C1[X(C8H24O4Si4)]
 Deg. of freedom   114
 Full point group                 C1      NOp   1
 Rotational constants (GHZ):      0.3664226      0.3562372      0.2328343
 Leave Link  202 at Tue Oct  4 11:53:03 2016, MaxMem= 2147483648 cpu:       0.0
 (Enter /opt/g09/l301.exe)
 Standard basis: 6-311G(d,p) (6D, 10F)
 Ernie: Thresh=  0.10000D-02 Tol=  0.10000D-05 Strict=F.
 Integral buffers will be    131072 words long.
 Raffenetti 2 integral format.
 Two-electron integral symmetry is turned off.
   480 basis functions,   760 primitive gaussians,   480 cartesian basis functions
    80 alpha electrons       80 beta electrons
       nuclear repulsion energy      1882.3067822190 Hartrees.
 IExCor= 1009 DFT=T Ex+Corr=PBE1PBE ExCW=0 ScaHFX=  0.250000
 ScaDFX=  0.750000  0.750000  1.000000  1.000000 ScalE2=  1.000000  1.000000
 IRadAn=      0 IRanWt=     -1 IRanGd=            0 ICorTp=0
 NAtoms=   40 NActive=   40 NUniq=   40 SFac= 7.50D-01 NAtFMM=   80 NAOKFM=F Big=F
 Leave Link  301 at Tue Oct  4 11:53:03 2016, MaxMem= 2147483648 cpu:       0.5
 (Enter /opt/g09/l302.exe)
 NPDir=0 NMtPBC=     1 NCelOv=     1 NCel=       1 NClECP=     1 NCelD=      1
         NCelK=      1 NCelE2=     1 NClLst=     1 CellRange=     0.0.
 One-electron integrals computed using PRISM.
 NBasis=   480 RedAO= T  NBF=   480
 NBsUse=   480 1.00D-06 NBFU=   480
 Precomputing XC quadrature grid using
 IXCGrd= 2 IRadAn=           0 IRanWt=          -1 IRanGd=           0 AccXCQ= 1.00D-10.
 NRdTot=    2558 NPtTot=      323500 NUsed=      341939 NTot=      341971
 NSgBfM=   459   459   463   463   463 NAtAll=    40    40.
 Leave Link  302 at Tue Oct  4 11:53:03 2016, MaxMem= 2147483648 cpu:       6.4
 (Enter /opt/g09/l303.exe)
 DipDrv:  MaxL=1.
 Leave Link  303 at Tue Oct  4 11:53:04 2016, MaxMem= 2147483648 cpu:       0.8
 (Enter /opt/g09/l401.exe)
 Harris functional with IExCor= 1009 diagonalized for initial guess.
 ExpMin= 6.54D-02 ExpMax= 6.94D+04 ExpMxC= 2.33D+03 IAcc=2 IRadAn=         0 AccDes= 0.00D+00
 HarFok:  IExCor= 1009 AccDes= 0.00D+00 IRadAn=         0 IDoV= 1
 ScaDFX=  1.000000  1.000000  1.000000  1.000000
 FoFCou: FMM=F IPFlag=           0 FMFlag=      100000 FMFlg1=           0
         NFxFlg=           0 DoJE=T BraDBF=F KetDBF=T FulRan=T
         Omega=  0.000000  0.000000  1.000000  0.000000  0.000000 ICntrl=     500 IOpCl=  0
         NMat0=    1 NMatS0=    1 NMatT0=    0 NMatD0=    1 NMtDS0=    0 NMtDT0=    0
         I1Cent=           4 NGrid=           0.
 Symmetry not used in FoFCou.
 Harris En= -1778.39048939406    
 Leave Link  401 at Tue Oct  4 11:53:07 2016, MaxMem= 2147483648 cpu:      27.2
 (Enter /opt/g09/l502.exe)
 Closed shell SCF:
 Requested convergence on RMS density matrix=1.00D-08 within 128 cycles.
 Requested convergence on MAX density matrix=1.00D-06.
 Requested convergence on             energy=1.00D-06.
 No special actions if energy rises.
 Using DIIS extrapolation, IDIIS=  1040.
 Two-electron integral symmetry not used.
       341566 words used for storage of precomputed grid.
 IEnd=     1057712 IEndB=     1057712 NGot=  2147483648 MDV=  2146673457
 LenX=  2146673457 LenY=  2146442577
 Using Cholesky orthonormal basis.
 Fock matrices will be formed incrementally for  20 cycles.
 Integral accuracy reduced to 1.0D-05 until final iterations.

 Cycle   1  Pass 0  IDiag  1:
 FoFCou: FMM=F IPFlag=           0 FMFlag=      100000 FMFlg1=           0
         NFxFlg=           0 DoJE=F BraDBF=F KetDBF=F FulRan=T
         Omega=  0.000000  0.000000  1.000000  0.000000  0.000000 ICntrl=       0 IOpCl=  0
         NMat0=    1 NMatS0=    1 NMatT0=    0 NMatD0=    1 NMtDS0=    0 NMtDT0=    0
         I1Cent=           0 NGrid=           0.
 Symmetry not used in FoFCou.
 E= -1776.42814841996    
 DIIS: error= 5.84D-02 at cycle   1 NSaved=   1.
 NSaved= 1 IEnMin= 1 EnMin= -1776.42814841996     IErMin= 1 ErrMin= 5.84D-02
 ErrMax= 5.84D-02 EMaxC= 1.00D-01 BMatC= 1.65D+00 BMatP= 1.65D+00
 IDIUse=3 WtCom= 4.16D-01 WtEn= 5.84D-01
 Coeff-Com:  0.100D+01
 Coeff-En:   0.100D+01
 Coeff:      0.100D+01
 Gap=     0.233 Goal=   None    Shift=    0.000
 GapD=    0.233 DampG=1.000 DampE=0.500 DampFc=0.5000 IDamp=-1.
 Damping current iteration by 5.00D-01
 RMSDP=3.95D-03 MaxDP=1.49D-01              OVMax= 2.37D-01

 Cycle   2  Pass 0  IDiag  1:
 RMSU=  1.39D-03    CP:  9.79D-01
 E= -1776.98385708675     Delta-E=       -0.555708666787 Rises=F Damp=T
 DIIS: error= 1.44D-02 at cycle   2 NSaved=   2.
 NSaved= 2 IEnMin= 2 EnMin= -1776.98385708675     IErMin= 2 ErrMin= 1.44D-02
 ErrMax= 1.44D-02 EMaxC= 1.00D-01 BMatC= 6.56D-02 BMatP= 1.65D+00
 IDIUse=3 WtCom= 8.56D-01 WtEn= 1.44D-01
 Coeff-Com:  0.793D-01 0.921D+00
 Coeff-En:   0.149D+00 0.851D+00
 Coeff:      0.894D-01 0.911D+00
 Gap=     0.313 Goal=   None    Shift=    0.000
 RMSDP=8.41D-04 MaxDP=3.15D-02 DE=-5.56D-01 OVMax= 1.64D-01

 Cycle   3  Pass 0  IDiag  1:
 RMSU=  4.59D-04    CP:  9.86D-01  7.30D-01
 E= -1777.65940874357     Delta-E=       -0.675551656823 Rises=F Damp=F
 DIIS: error= 1.12D-02 at cycle   3 NSaved=   3.
 NSaved= 3 IEnMin= 3 EnMin= -1777.65940874357     IErMin= 3 ErrMin= 1.12D-02
 ErrMax= 1.12D-02 EMaxC= 1.00D-01 BMatC= 3.90D-02 BMatP= 6.56D-02
 IDIUse=3 WtCom= 8.88D-01 WtEn= 1.12D-01
 Coeff-Com:  0.158D-01 0.423D+00 0.561D+00
 Coeff-En:   0.000D+00 0.000D+00 0.100D+01
 Coeff:      0.140D-01 0.375D+00 0.611D+00
 Gap=     0.309 Goal=   None    Shift=    0.000
 RMSDP=4.41D-04 MaxDP=1.82D-02 DE=-6.76D-01 OVMax= 3.66D-02

 Cycle   4  Pass 0  IDiag  1:
 RMSU=  2.00D-04    CP:  9.85D-01  7.83D-01  5.04D-01
 E= -1777.68221335002     Delta-E=       -0.022804606449 Rises=F Damp=F
 DIIS: error= 5.31D-03 at cycle   4 NSaved=   4.
 NSaved= 4 IEnMin= 4 EnMin= -1777.68221335002     IErMin= 4 ErrMin= 5.31D-03
 ErrMax= 5.31D-03 EMaxC= 1.00D-01 BMatC= 9.27D-03 BMatP= 3.90D-02
 IDIUse=3 WtCom= 9.47D-01 WtEn= 5.31D-02
 Coeff-Com: -0.365D-02 0.151D-01 0.331D+00 0.658D+00
 Coeff-En:   0.000D+00 0.000D+00 0.211D+00 0.789D+00
 Coeff:     -0.346D-02 0.143D-01 0.325D+00 0.665D+00
 Gap=     0.304 Goal=   None    Shift=    0.000
 RMSDP=1.41D-04 MaxDP=6.01D-03 DE=-2.28D-02 OVMax= 1.13D-02

 Cycle   5  Pass 0  IDiag  1:
 RMSU=  2.56D-05    CP:  9.85D-01  7.75D-01  6.64D-01  6.98D-01
 E= -1777.68944205831     Delta-E=       -0.007228708294 Rises=F Damp=F
 DIIS: error= 4.44D-04 at cycle   5 NSaved=   5.
 NSaved= 5 IEnMin= 5 EnMin= -1777.68944205831     IErMin= 5 ErrMin= 4.44D-04
 ErrMax= 4.44D-04 EMaxC= 1.00D-01 BMatC= 7.07D-05 BMatP= 9.27D-03
 IDIUse=3 WtCom= 9.96D-01 WtEn= 4.44D-03
 Coeff-Com: -0.756D-03-0.184D-02 0.107D+00 0.244D+00 0.652D+00
 Coeff-En:   0.000D+00 0.000D+00 0.000D+00 0.000D+00 0.100D+01
 Coeff:     -0.753D-03-0.183D-02 0.107D+00 0.243D+00 0.653D+00
 Gap=     0.305 Goal=   None    Shift=    0.000
 RMSDP=1.74D-05 MaxDP=1.32D-03 DE=-7.23D-03 OVMax= 9.69D-04

 Cycle   6  Pass 0  IDiag  1:
 RMSU=  5.03D-06    CP:  9.85D-01  7.71D-01  6.66D-01  7.02D-01  6.20D-01
 E= -1777.68949818044     Delta-E=       -0.000056122123 Rises=F Damp=F
 DIIS: error= 6.18D-05 at cycle   6 NSaved=   6.
 NSaved= 6 IEnMin= 6 EnMin= -1777.68949818044     IErMin= 6 ErrMin= 6.18D-05
 ErrMax= 6.18D-05 EMaxC= 1.00D-01 BMatC= 1.24D-06 BMatP= 7.07D-05
 IDIUse=1 WtCom= 1.00D+00 WtEn= 0.00D+00
 Coeff-Com:  0.110D-03-0.905D-03 0.134D-01 0.320D-01 0.155D+00 0.800D+00
 Coeff:      0.110D-03-0.905D-03 0.134D-01 0.320D-01 0.155D+00 0.800D+00
 Gap=     0.304 Goal=   None    Shift=    0.000
 RMSDP=2.78D-06 MaxDP=1.85D-04 DE=-5.61D-05 OVMax= 1.74D-04

 Initial convergence to 1.0D-05 achieved.  Increase integral accuracy.
 Cycle   7  Pass 1  IDiag  1:
 E= -1777.68966801083     Delta-E=       -0.000169830389 Rises=F Damp=F
 DIIS: error= 6.94D-05 at cycle   1 NSaved=   1.
 NSaved= 1 IEnMin= 1 EnMin= -1777.68966801083     IErMin= 1 ErrMin= 6.94D-05
 ErrMax= 6.94D-05 EMaxC= 1.00D-01 BMatC= 1.04D-06 BMatP= 1.04D-06
 IDIUse=1 WtCom= 1.00D+00 WtEn= 0.00D+00
 Coeff-Com:  0.100D+01
 Coeff:      0.100D+01
 Gap=     0.305 Goal=   None    Shift=    0.000
 RMSDP=2.78D-06 MaxDP=1.85D-04 DE=-1.70D-04 OVMax= 4.51D-04

 Cycle   8  Pass 1  IDiag  1:
 RMSU=  6.75D-06    CP:  1.00D+00
 E= -1777.68966951435     Delta-E=       -0.000001503526 Rises=F Damp=F
 DIIS: error= 1.03D-05 at cycle   2 NSaved=   2.
 NSaved= 2 IEnMin= 2 EnMin= -1777.68966951435     IErMin= 2 ErrMin= 1.03D-05
 ErrMax= 1.03D-05 EMaxC= 1.00D-01 BMatC= 4.76D-08 BMatP= 1.04D-06
 IDIUse=1 WtCom= 1.00D+00 WtEn= 0.00D+00
 Coeff-Com:  0.375D-01 0.962D+00
 Coeff:      0.375D-01 0.962D+00
 Gap=     0.304 Goal=   None    Shift=    0.000
 RMSDP=1.17D-06 MaxDP=6.44D-05 DE=-1.50D-06 OVMax= 6.27D-05

 Cycle   9  Pass 1  IDiag  1:
 RMSU=  7.83D-07    CP:  1.00D+00  1.04D+00
 E= -1777.68966953339     Delta-E=       -0.000000019039 Rises=F Damp=F
 DIIS: error= 1.07D-05 at cycle   3 NSaved=   3.
 NSaved= 3 IEnMin= 3 EnMin= -1777.68966953339     IErMin= 2 ErrMin= 1.03D-05
 ErrMax= 1.07D-05 EMaxC= 1.00D-01 BMatC= 4.06D-08 BMatP= 4.76D-08
 IDIUse=1 WtCom= 1.00D+00 WtEn= 0.00D+00
 Coeff-Com: -0.180D-01 0.484D+00 0.534D+00
 Coeff:     -0.180D-01 0.484D+00 0.534D+00
 Gap=     0.304 Goal=   None    Shift=    0.000
 RMSDP=5.23D-07 MaxDP=1.92D-05 DE=-1.90D-08 OVMax= 3.36D-05

 Cycle  10  Pass 1  IDiag  1:
 RMSU=  1.56D-07    CP:  1.00D+00  1.05D+00  5.91D-01
 E= -1777.68966957226     Delta-E=       -0.000000038870 Rises=F Damp=F
 DIIS: error= 3.23D-06 at cycle   4 NSaved=   4.
 NSaved= 4 IEnMin= 4 EnMin= -1777.68966957226     IErMin= 4 ErrMin= 3.23D-06
 ErrMax= 3.23D-06 EMaxC= 1.00D-01 BMatC= 3.56D-09 BMatP= 4.06D-08
 IDIUse=1 WtCom= 1.00D+00 WtEn= 0.00D+00
 Coeff-Com: -0.141D-01 0.196D+00 0.283D+00 0.535D+00
 Coeff:     -0.141D-01 0.196D+00 0.283D+00 0.535D+00
 Gap=     0.304 Goal=   None    Shift=    0.000
 RMSDP=8.62D-08 MaxDP=5.19D-06 DE=-3.89D-08 OVMax= 6.55D-06

 Cycle  11  Pass 1  IDiag  1:
 RMSU=  5.14D-08    CP:  1.00D+00  1.06D+00  6.01D-01  8.16D-01
 E= -1777.68966957449     Delta-E=       -0.000000002230 Rises=F Damp=F
 DIIS: error= 6.11D-07 at cycle   5 NSaved=   5.
 NSaved= 5 IEnMin= 5 EnMin= -1777.68966957449     IErMin= 5 ErrMin= 6.11D-07
 ErrMax= 6.11D-07 EMaxC= 1.00D-01 BMatC= 1.38D-10 BMatP= 3.56D-09
 IDIUse=1 WtCom= 1.00D+00 WtEn= 0.00D+00
 Coeff-Com: -0.414D-02 0.421D-01 0.722D-01 0.215D+00 0.675D+00
 Coeff:     -0.414D-02 0.421D-01 0.722D-01 0.215D+00 0.675D+00
 Gap=     0.304 Goal=   None    Shift=    0.000
 RMSDP=2.10D-08 MaxDP=1.95D-06 DE=-2.23D-09 OVMax= 1.35D-06

 Cycle  12  Pass 1  IDiag  1:
 RMSU=  6.15D-09    CP:  1.00D+00  1.06D+00  6.11D-01  8.62D-01  8.55D-01
 E= -1777.68966957451     Delta-E=       -0.000000000020 Rises=F Damp=F
 DIIS: error= 7.42D-08 at cycle   6 NSaved=   6.
 NSaved= 6 IEnMin= 6 EnMin= -1777.68966957451     IErMin= 6 ErrMin= 7.42D-08
 ErrMax= 7.42D-08 EMaxC= 1.00D-01 BMatC= 3.21D-12 BMatP= 1.38D-10
 IDIUse=1 WtCom= 1.00D+00 WtEn= 0.00D+00
 Coeff-Com: -0.232D-04-0.376D-02-0.163D-02 0.151D-01 0.146D+00 0.845D+00
 Coeff:     -0.232D-04-0.376D-02-0.163D-02 0.151D-01 0.146D+00 0.845D+00
 Gap=     0.304 Goal=   None    Shift=    0.000
 RMSDP=4.31D-09 MaxDP=2.90D-07 DE=-2.05D-11 OVMax= 4.00D-07

 SCF Done:  E(RPBE1PBE) =  -1777.68966957     A.U. after   12 cycles
             Convg  =    0.4315D-08             -V/T =  2.0028
 KE= 1.772783895812D+03 PE=-7.975459830704D+03 EE= 2.542679483099D+03
 Tr(PA) in orthogonal basis=  160.000000
 Leave Link  502 at Tue Oct  4 11:55:25 2016, MaxMem= 2147483648 cpu:    1108.2
 (Enter /opt/g09/l601.exe)
 Copying SCF densities to generalized density rwf, IOpCl= 0 IROHF=0.

 **********************************************************************

            Population analysis using the SCF density.

 **********************************************************************

 Alpha  occ. eigenvalues --  -66.26068 -66.26068 -66.26061 -66.26061 -19.18309
 Alpha  occ. eigenvalues --  -19.18309 -19.18309 -19.18309 -10.19762 -10.19762
 Alpha  occ. eigenvalues --  -10.19610 -10.19610 -10.19610 -10.19610 -10.19498
 Alpha  occ. eigenvalues --  -10.19498  -5.34127  -5.34126  -5.34122  -5.34120
 Alpha  occ. eigenvalues --   -3.67795  -3.67795  -3.67790  -3.67790  -3.67582
 Alpha  occ. eigenvalues --   -3.67582  -3.67572  -3.67572  -3.67366  -3.67366
 Alpha  occ. eigenvalues --   -3.67358  -3.67358  -1.02307  -1.00247  -1.00215
 Alpha  occ. eigenvalues --   -0.97993  -0.73198  -0.72289  -0.72264  -0.71784
 Alpha  occ. eigenvalues --   -0.70166  -0.70041  -0.70022  -0.69902  -0.59105
 Alpha  occ. eigenvalues --   -0.55500  -0.55344  -0.49664  -0.43835  -0.43527
 Alpha  occ. eigenvalues --   -0.42667  -0.42639  -0.42469  -0.42315  -0.41876
 Alpha  occ. eigenvalues --   -0.41744  -0.41573  -0.41445  -0.40896  -0.40773
 Alpha  occ. eigenvalues --   -0.40323  -0.40264  -0.40105  -0.40095  -0.40077
 Alpha  occ. eigenvalues --   -0.39688  -0.38479  -0.38082  -0.37721  -0.37014
 Alpha  occ. eigenvalues --   -0.36833  -0.35161  -0.34767  -0.34279  -0.33032
 Alpha  occ. eigenvalues --   -0.31576  -0.31542  -0.29120  -0.28946  -0.27734
 Alpha virt. eigenvalues --    0.02716   0.05148   0.05343   0.06232   0.07913
 Alpha virt. eigenvalues --    0.08485   0.08512   0.08607   0.09240   0.09913
 Alpha virt. eigenvalues --    0.10166   0.10748   0.10807   0.10846   0.10893
 Alpha virt. eigenvalues --    0.11643   0.12177   0.12336   0.12574   0.13231
 Alpha virt. eigenvalues --    0.13270   0.14184   0.14518   0.14636   0.14993
 Alpha virt. eigenvalues --    0.15422   0.15502   0.15539   0.16145   0.16712
 Alpha virt. eigenvalues --    0.17445   0.17793   0.18950   0.19630   0.19791
 Alpha virt. eigenvalues --    0.20408   0.21088   0.22181   0.22446   0.23555
 Alpha virt. eigenvalues --    0.23597   0.24068   0.26228   0.26448   0.26546
 Alpha virt. eigenvalues --    0.27277   0.27897   0.28280   0.29074   0.29194
 Alpha virt. eigenvalues --    0.29336   0.30075   0.32390   0.32531   0.32564
 Alpha virt. eigenvalues --    0.32611   0.34594   0.35431   0.36114   0.38583
 Alpha virt. eigenvalues --    0.39382   0.40531   0.42391   0.42521   0.42750
 Alpha virt. eigenvalues --    0.43270   0.44360   0.45475   0.46139   0.47038
 Alpha virt. eigenvalues --    0.47865   0.47949   0.50249   0.50332   0.50751
 Alpha virt. eigenvalues --    0.51963   0.54950   0.55047   0.56735   0.57837
 Alpha virt. eigenvalues --    0.58079   0.58277   0.58345   0.58450   0.60010
 Alpha virt. eigenvalues --    0.60263   0.60655   0.60693   0.60744   0.61762
 Alpha virt. eigenvalues --    0.61831   0.62439   0.62658   0.62740   0.63062
 Alpha virt. eigenvalues --    0.64377   0.64866   0.65114   0.65340   0.65541
 Alpha virt. eigenvalues --    0.65659   0.65947   0.66329   0.66630   0.67330
 Alpha virt. eigenvalues --    0.68921   0.69314   0.70346   0.71187   0.71481
 Alpha virt. eigenvalues --    0.72278   0.73030   0.77202   0.77436   0.79502
 Alpha virt. eigenvalues --    0.80262   0.80550   0.81088   0.85014   0.86274
 Alpha virt. eigenvalues --    0.87281   0.87925   0.88033   0.88114   0.88969
 Alpha virt. eigenvalues --    0.89039   0.89250   0.93386   0.99474   0.99808
 Alpha virt. eigenvalues --    0.99814   1.02730   1.04806   1.05185   1.05214
 Alpha virt. eigenvalues --    1.06344   1.06418   1.06890   1.07857   1.08654
 Alpha virt. eigenvalues --    1.10250   1.10310   1.10685   1.11496   1.15479
 Alpha virt. eigenvalues --    1.17900   1.18011   1.18098   1.18143   1.19259
 Alpha virt. eigenvalues --    1.19521   1.21418   1.21860   1.22110   1.22365
 Alpha virt. eigenvalues --    1.23215   1.24166   1.30070   1.32054   1.33891
 Alpha virt. eigenvalues --    1.36400   1.38280   1.40513   1.40676   1.42110
 Alpha virt. eigenvalues --    1.44297   1.45702   1.45703   1.45857   1.46553
 Alpha virt. eigenvalues --    1.47016   1.47099   1.47154   1.47255   1.47414
 Alpha virt. eigenvalues --    1.47763   1.47986   1.48970   1.48989   1.49166
 Alpha virt. eigenvalues --    1.50669   1.51162   1.52218   1.54249   1.56397
 Alpha virt. eigenvalues --    1.57262   1.57521   1.57671   1.58351   1.59516
 Alpha virt. eigenvalues --    1.59842   1.60413   1.60641   1.61560   1.61990
 Alpha virt. eigenvalues --    1.62577   1.63548   1.64017   1.65250   1.65656
 Alpha virt. eigenvalues --    1.66597   1.68324   1.68584   1.69907   1.69973
 Alpha virt. eigenvalues --    1.70363   1.71184   1.71611   1.73960   1.74791
 Alpha virt. eigenvalues --    1.74939   1.75115   1.75225   1.75342   1.75531
 Alpha virt. eigenvalues --    1.76691   1.76994   1.77360   1.80049   1.80239
 Alpha virt. eigenvalues --    1.80332   1.80822   1.81068   1.81394   2.01692
 Alpha virt. eigenvalues --    2.02863   2.02880   2.04489   2.06432   2.06625
 Alpha virt. eigenvalues --    2.06905   2.07397   2.17523   2.17805   2.18280
 Alpha virt. eigenvalues --    2.18375   2.19096   2.19185   2.19283   2.19769
 Alpha virt. eigenvalues --    2.20966   2.21110   2.21124   2.22825   2.23003
 Alpha virt. eigenvalues --    2.23778   2.23936   2.24248   2.33574   2.34504
 Alpha virt. eigenvalues --    2.34817   2.36577   2.36619   2.38396   2.38555
 Alpha virt. eigenvalues --    2.40373   2.42137   2.43808   2.45615   2.46723
 Alpha virt. eigenvalues --    2.47129   2.47382   2.49507   2.49982   2.50292
 Alpha virt. eigenvalues --    2.50566   2.51022   2.51500   2.51575   2.51628
 Alpha virt. eigenvalues --    2.51761   2.52750   2.55454   2.55641   2.56246
 Alpha virt. eigenvalues --    2.56275   2.56905   2.57575   2.57656   2.57771
 Alpha virt. eigenvalues --    2.59045   2.60950   2.61326   2.61878   2.62033
 Alpha virt. eigenvalues --    2.62043   2.63152   2.63801   2.65333   2.67016
 Alpha virt. eigenvalues --    2.67248   2.71788   2.82262   2.82280   2.82864
 Alpha virt. eigenvalues --    2.83104   2.83155   2.83333   2.83857   2.84087
 Alpha virt. eigenvalues --    2.85351   2.86849   2.87087   2.89108   2.91058
 Alpha virt. eigenvalues --    2.91430   2.92669   2.92921   2.93064   2.99361
 Alpha virt. eigenvalues --    3.00541   3.03889   3.14753   3.19289   3.19913
 Alpha virt. eigenvalues --    3.20607   3.22274   3.23574   3.24783   3.25407
 Alpha virt. eigenvalues --    3.27273   3.28033   3.28821   3.31578   3.36823
 Alpha virt. eigenvalues --    3.39167   3.39257   3.40879   3.42217   3.42444
 Alpha virt. eigenvalues --    3.42525   3.44026   3.47536   3.48431   3.49310
 Alpha virt. eigenvalues --    3.52052   3.77001   3.77198   3.77206   3.77317
 Alpha virt. eigenvalues --    3.77469   3.77633   3.77868   3.77889   3.79095
 Alpha virt. eigenvalues --    3.79205   3.79419   3.79889   3.79913   3.80304
 Alpha virt. eigenvalues --    3.80489   3.80636   4.94192   4.96471   5.01405
 Alpha virt. eigenvalues --    5.01739   5.06022   5.07266   5.11654   5.11932
 Alpha virt. eigenvalues --    5.24139   5.25702   5.25920   5.28877   6.10306
 Alpha virt. eigenvalues --    6.22843   6.24416   6.25011   9.49100   9.50982
 Alpha virt. eigenvalues --    9.50999   9.53844  11.55145  11.55161  11.55209
 Alpha virt. eigenvalues --   11.55238  11.56443  11.56738  11.57689  11.59160
 Alpha virt. eigenvalues --   11.60827  11.61595  11.63118  11.63997  26.58341
 Alpha virt. eigenvalues --   26.60927  26.61291  26.63289  26.63737  26.63854
 Alpha virt. eigenvalues --   26.64317  26.70994  55.31365  55.41429  55.42433
 Alpha virt. eigenvalues --   55.43851 146.82840 146.86674 146.86732 146.91295
          Condensed to atoms (all electrons):
              1          2          3          4          5          6
     1  Si  11.404973   0.003431  -0.007573   0.003430   0.322870   0.322867
     2  Si   0.003431  11.409584   0.003430  -0.003073   0.326043   0.001492
     3  Si  -0.007573   0.003430  11.404972   0.003431  -0.002113  -0.002114
     4  Si   0.003430  -0.003073   0.003431  11.409584   0.001491   0.326044
     5  O    0.322870   0.326043  -0.002113   0.001491   8.306861  -0.020649
     6  O    0.322867   0.001492  -0.002114   0.326044  -0.020649   8.306862
     7  O   -0.002114   0.001491   0.322869   0.326044   0.000105  -0.018759
     8  O   -0.002113   0.326043   0.322868   0.001491  -0.018759   0.000105
     9  C    0.366096  -0.000066  -0.000118  -0.003380  -0.028307  -0.028944
    10  C    0.366096  -0.003380  -0.000118  -0.000066  -0.028944  -0.028306
    11  C    0.000026   0.363289   0.000026  -0.000287  -0.030060  -0.000004
    12  C   -0.002126   0.356718  -0.002126   0.000048  -0.028157  -0.000159
    13  C   -0.000118  -0.003380   0.366097  -0.000066  -0.000018  -0.000015
    14  C   -0.000118  -0.000066   0.366096  -0.003380  -0.000015  -0.000018
    15  C    0.000026  -0.000287   0.000026   0.363288  -0.000004  -0.030060
    16  C   -0.002126   0.000048  -0.002126   0.356718  -0.000159  -0.028157
    17  H   -0.014275  -0.000050  -0.000011   0.000377  -0.000760   0.001133
    18  H   -0.014914   0.000024   0.000009  -0.000199   0.001185  -0.001356
    19  H   -0.021351   0.000098  -0.000046  -0.000944  -0.000766  -0.002087
    20  H   -0.021351  -0.000945  -0.000046   0.000098  -0.002088  -0.000766
    21  H   -0.014274   0.000377  -0.000011  -0.000050   0.001133  -0.000760
    22  H   -0.014915  -0.000199   0.000009   0.000024  -0.001356   0.001185
    23  H   -0.000026  -0.021296  -0.000026  -0.000049  -0.001901   0.000001
    24  H    0.000025  -0.014914   0.000087   0.000015   0.001047   0.000001
    25  H    0.000087  -0.014915   0.000025   0.000015  -0.001587   0.000001
    26  H   -0.000922  -0.013415   0.000344  -0.000021  -0.000942  -0.000007
    27  H    0.000344  -0.013415  -0.000921  -0.000021   0.001252  -0.000003
    28  H    0.000178  -0.023456   0.000178  -0.000018  -0.001416  -0.000091
    29  H   -0.000011   0.000377  -0.014275  -0.000050   0.000000   0.000000
    30  H    0.000009  -0.000199  -0.014914   0.000024  -0.000001   0.000000
    31  H   -0.000046  -0.000944  -0.021351   0.000098  -0.000019  -0.000012
    32  H   -0.000046   0.000098  -0.021351  -0.000945  -0.000012  -0.000019
    33  H   -0.000011  -0.000050  -0.014275   0.000377   0.000000   0.000000
    34  H    0.000009   0.000024  -0.014914  -0.000199   0.000000  -0.000001
    35  H   -0.000026  -0.000049  -0.000026  -0.021297   0.000001  -0.001901
    36  H    0.000087   0.000015   0.000025  -0.014914   0.000001  -0.001587
    37  H    0.000025   0.000015   0.000086  -0.014915   0.000001   0.001047
    38  H    0.000344  -0.000021  -0.000922  -0.013415  -0.000003   0.001252
    39  H   -0.000921  -0.000021   0.000344  -0.013415  -0.000007  -0.000942
    40  H    0.000178  -0.000018   0.000178  -0.023456  -0.000091  -0.001416
              7          8          9         10         11         12
     1  Si  -0.002114  -0.002113   0.366096   0.366096   0.000026  -0.002126
     2  Si   0.001491   0.326043  -0.000066  -0.003380   0.363289   0.356718
     3  Si   0.322869   0.322868  -0.000118  -0.000118   0.000026  -0.002126
     4  Si   0.326044   0.001491  -0.003380  -0.000066  -0.000287   0.000048
     5  O    0.000105  -0.018759  -0.028307  -0.028944  -0.030060  -0.028157
     6  O   -0.018759   0.000105  -0.028944  -0.028306  -0.000004  -0.000159
     7  O    8.306861  -0.020649  -0.000018  -0.000015  -0.000004  -0.000159
     8  O   -0.020649   8.306862  -0.000015  -0.000018  -0.030060  -0.028157
     9  C   -0.000018  -0.000015   5.260616  -0.057609   0.000022  -0.000044
    10  C   -0.000015  -0.000018  -0.057609   5.260616  -0.000051   0.000701
    11  C   -0.000004  -0.030060   0.000022  -0.000051   5.251318  -0.057936
    12  C   -0.000159  -0.028157  -0.000044   0.000701  -0.057936   5.286443
    13  C   -0.028307  -0.028944   0.000000   0.000000  -0.000051   0.000701
    14  C   -0.028944  -0.028306   0.000000   0.000000   0.000022  -0.000044
    15  C   -0.030060  -0.000004  -0.000051   0.000022   0.000000   0.000001
    16  C   -0.028158  -0.000159   0.000701  -0.000044   0.000001   0.000000
    17  H    0.000000   0.000000   0.387614  -0.000050   0.000014   0.000004
    18  H   -0.000001   0.000000   0.387515   0.000006  -0.000002   0.000002
    19  H   -0.000019  -0.000012   0.393637   0.002091  -0.000003   0.000003
    20  H   -0.000012  -0.000019   0.002091   0.393637  -0.000003   0.000414
    21  H    0.000000   0.000000  -0.000050   0.387614   0.000001  -0.000015
    22  H    0.000000  -0.000001   0.000006   0.387516   0.000003   0.000091
    23  H    0.000001  -0.001901   0.000019  -0.000002   0.396420   0.001919
    24  H    0.000001  -0.001587  -0.000001   0.000001   0.388761  -0.000055
    25  H    0.000001   0.001047   0.000029  -0.000004   0.388762  -0.000055
    26  H   -0.000003   0.001252  -0.000003   0.000216  -0.000122   0.386700
    27  H   -0.000007  -0.000941   0.000001  -0.000004  -0.000122   0.386701
    28  H   -0.000091  -0.001416  -0.000006   0.000316   0.002051   0.393724
    29  H   -0.000760   0.001133   0.000000   0.000000   0.000001  -0.000015
    30  H    0.001185  -0.001356   0.000000   0.000000   0.000003   0.000091
    31  H   -0.000766  -0.002088   0.000000  -0.000001  -0.000003   0.000414
    32  H   -0.002088  -0.000765  -0.000001   0.000000  -0.000003   0.000003
    33  H    0.001133  -0.000760   0.000000   0.000000   0.000014   0.000004
    34  H   -0.001356   0.001185   0.000000   0.000000  -0.000002   0.000002
    35  H   -0.001901   0.000001  -0.000002   0.000019   0.000000   0.000000
    36  H    0.001047   0.000001  -0.000004   0.000029   0.000000   0.000000
    37  H   -0.001587   0.000001   0.000001  -0.000001   0.000000   0.000000
    38  H   -0.000942  -0.000007  -0.000004   0.000001   0.000000   0.000000
    39  H    0.001252  -0.000003   0.000216  -0.000003   0.000000   0.000000
    40  H   -0.001416  -0.000091   0.000316  -0.000006  -0.000001   0.000001
             13         14         15         16         17         18
     1  Si  -0.000118  -0.000118   0.000026  -0.002126  -0.014275  -0.014914
     2  Si  -0.003380  -0.000066  -0.000287   0.000048  -0.000050   0.000024
     3  Si   0.366097   0.366096   0.000026  -0.002126  -0.000011   0.000009
     4  Si  -0.000066  -0.003380   0.363288   0.356718   0.000377  -0.000199
     5  O   -0.000018  -0.000015  -0.000004  -0.000159  -0.000760   0.001185
     6  O   -0.000015  -0.000018  -0.030060  -0.028157   0.001133  -0.001356
     7  O   -0.028307  -0.028944  -0.030060  -0.028158   0.000000  -0.000001
     8  O   -0.028944  -0.028306  -0.000004  -0.000159   0.000000   0.000000
     9  C    0.000000   0.000000  -0.000051   0.000701   0.387614   0.387515
    10  C    0.000000   0.000000   0.000022  -0.000044  -0.000050   0.000006
    11  C   -0.000051   0.000022   0.000000   0.000001   0.000014  -0.000002
    12  C    0.000701  -0.000044   0.000001   0.000000   0.000004   0.000002
    13  C    5.260615  -0.057609   0.000022  -0.000044   0.000000   0.000000
    14  C   -0.057609   5.260617  -0.000051   0.000701   0.000000   0.000000
    15  C    0.000022  -0.000051   5.251319  -0.057936   0.000001   0.000003
    16  C   -0.000044   0.000701  -0.057936   5.286441  -0.000015   0.000091
    17  H    0.000000   0.000000   0.000001  -0.000015   0.529638  -0.023033
    18  H    0.000000   0.000000   0.000003   0.000091  -0.023033   0.533577
    19  H    0.000000  -0.000001  -0.000003   0.000414  -0.017836  -0.018707
    20  H   -0.000001   0.000000  -0.000003   0.000003  -0.000053  -0.000014
    21  H    0.000000   0.000000   0.000014   0.000004  -0.000239   0.000728
    22  H    0.000000   0.000000  -0.000002   0.000002   0.000728  -0.000138
    23  H   -0.000002   0.000019   0.000000   0.000000  -0.000001  -0.000001
    24  H   -0.000004   0.000029   0.000000   0.000000  -0.000001   0.000000
    25  H    0.000001  -0.000001   0.000000   0.000000   0.000007   0.000000
    26  H   -0.000004   0.000001   0.000000   0.000000  -0.000002   0.000000
    27  H    0.000216  -0.000003   0.000000   0.000000   0.000000   0.000000
    28  H    0.000316  -0.000006  -0.000001   0.000001   0.000001   0.000000
    29  H    0.387614  -0.000050   0.000014   0.000004   0.000000   0.000000
    30  H    0.387515   0.000006  -0.000002   0.000002   0.000000   0.000000
    31  H    0.393637   0.002091  -0.000003   0.000003   0.000000   0.000000
    32  H    0.002091   0.393637  -0.000003   0.000414   0.000000   0.000000
    33  H   -0.000050   0.387614   0.000001  -0.000015   0.000000   0.000000
    34  H    0.000006   0.387515   0.000003   0.000091   0.000000   0.000000
    35  H    0.000019  -0.000002   0.396420   0.001919   0.000000  -0.000001
    36  H   -0.000001   0.000001   0.388761  -0.000055   0.000000  -0.000004
    37  H    0.000029  -0.000004   0.388762  -0.000055   0.000000   0.000000
    38  H   -0.000003   0.000216  -0.000122   0.386700   0.000000  -0.000005
    39  H    0.000001  -0.000004  -0.000122   0.386701  -0.000011   0.000151
    40  H   -0.000006   0.000316   0.002051   0.393724  -0.000027  -0.000037
             19         20         21         22         23         24
     1  Si  -0.021351  -0.021351  -0.014274  -0.014915  -0.000026   0.000025
     2  Si   0.000098  -0.000945   0.000377  -0.000199  -0.021296  -0.014914
     3  Si  -0.000046  -0.000046  -0.000011   0.000009  -0.000026   0.000087
     4  Si  -0.000944   0.000098  -0.000050   0.000024  -0.000049   0.000015
     5  O   -0.000766  -0.002088   0.001133  -0.001356  -0.001901   0.001047
     6  O   -0.002087  -0.000766  -0.000760   0.001185   0.000001   0.000001
     7  O   -0.000019  -0.000012   0.000000   0.000000   0.000001   0.000001
     8  O   -0.000012  -0.000019   0.000000  -0.000001  -0.001901  -0.001587
     9  C    0.393637   0.002091  -0.000050   0.000006   0.000019  -0.000001
    10  C    0.002091   0.393637   0.387614   0.387516  -0.000002   0.000001
    11  C   -0.000003  -0.000003   0.000001   0.000003   0.396420   0.388761
    12  C    0.000003   0.000414  -0.000015   0.000091   0.001919  -0.000055
    13  C    0.000000  -0.000001   0.000000   0.000000  -0.000002  -0.000004
    14  C   -0.000001   0.000000   0.000000   0.000000   0.000019   0.000029
    15  C   -0.000003  -0.000003   0.000014  -0.000002   0.000000   0.000000
    16  C    0.000414   0.000003   0.000004   0.000002   0.000000   0.000000
    17  H   -0.017836  -0.000053  -0.000239   0.000728  -0.000001  -0.000001
    18  H   -0.018707  -0.000014   0.000728  -0.000138  -0.000001   0.000000
    19  H    0.520983  -0.000109  -0.000053  -0.000014   0.000013  -0.000001
    20  H   -0.000109   0.520983  -0.017836  -0.018707   0.000000   0.000000
    21  H   -0.000053  -0.017836   0.529637  -0.023033   0.000000   0.000000
    22  H   -0.000014  -0.018707  -0.023033   0.533577  -0.000001   0.000000
    23  H    0.000013   0.000000   0.000000  -0.000001   0.517863  -0.018125
    24  H   -0.000001   0.000000   0.000000   0.000000  -0.018125   0.533101
    25  H   -0.000002  -0.000001   0.000000  -0.000004  -0.018125  -0.023563
    26  H    0.000000   0.000122  -0.000011   0.000151  -0.000030  -0.000165
    27  H    0.000000  -0.000025   0.000000  -0.000005  -0.000030   0.000734
    28  H    0.000001   0.001006  -0.000027  -0.000037  -0.000107  -0.000052
    29  H    0.000000   0.000000   0.000000   0.000000   0.000000   0.000000
    30  H    0.000000   0.000000   0.000000   0.000000  -0.000001  -0.000004
    31  H    0.000000  -0.000002   0.000000   0.000000   0.000000  -0.000001
    32  H   -0.000002   0.000000   0.000000   0.000000   0.000013  -0.000002
    33  H    0.000000   0.000000   0.000000   0.000000  -0.000001   0.000007
    34  H    0.000000   0.000000   0.000000   0.000000  -0.000001   0.000000
    35  H    0.000000   0.000013  -0.000001  -0.000001   0.000000   0.000000
    36  H   -0.000001  -0.000002   0.000007   0.000000   0.000000   0.000000
    37  H    0.000000  -0.000001  -0.000001   0.000000   0.000000   0.000000
    38  H   -0.000025   0.000000   0.000000   0.000000   0.000000   0.000000
    39  H    0.000122   0.000000  -0.000002   0.000000   0.000000   0.000000
    40  H    0.001006   0.000001   0.000001   0.000000   0.000000   0.000000
             25         26         27         28         29         30
     1  Si   0.000087  -0.000922   0.000344   0.000178  -0.000011   0.000009
     2  Si  -0.014915  -0.013415  -0.013415  -0.023456   0.000377  -0.000199
     3  Si   0.000025   0.000344  -0.000921   0.000178  -0.014275  -0.014914
     4  Si   0.000015  -0.000021  -0.000021  -0.000018  -0.000050   0.000024
     5  O   -0.001587  -0.000942   0.001252  -0.001416   0.000000  -0.000001
     6  O    0.000001  -0.000007  -0.000003  -0.000091   0.000000   0.000000
     7  O    0.000001  -0.000003  -0.000007  -0.000091  -0.000760   0.001185
     8  O    0.001047   0.001252  -0.000941  -0.001416   0.001133  -0.001356
     9  C    0.000029  -0.000003   0.000001  -0.000006   0.000000   0.000000
    10  C   -0.000004   0.000216  -0.000004   0.000316   0.000000   0.000000
    11  C    0.388762  -0.000122  -0.000122   0.002051   0.000001   0.000003
    12  C   -0.000055   0.386700   0.386701   0.393724  -0.000015   0.000091
    13  C    0.000001  -0.000004   0.000216   0.000316   0.387614   0.387515
    14  C   -0.000001   0.000001  -0.000003  -0.000006  -0.000050   0.000006
    15  C    0.000000   0.000000   0.000000  -0.000001   0.000014  -0.000002
    16  C    0.000000   0.000000   0.000000   0.000001   0.000004   0.000002
    17  H    0.000007  -0.000002   0.000000   0.000001   0.000000   0.000000
    18  H    0.000000   0.000000   0.000000   0.000000   0.000000   0.000000
    19  H   -0.000002   0.000000   0.000000   0.000001   0.000000   0.000000
    20  H   -0.000001   0.000122  -0.000025   0.001006   0.000000   0.000000
    21  H    0.000000  -0.000011   0.000000  -0.000027   0.000000   0.000000
    22  H   -0.000004   0.000151  -0.000005  -0.000037   0.000000   0.000000
    23  H   -0.018125  -0.000030  -0.000030  -0.000107   0.000000  -0.000001
    24  H   -0.023563  -0.000165   0.000734  -0.000052   0.000000  -0.000004
    25  H    0.533101   0.000734  -0.000165  -0.000052   0.000000   0.000000
    26  H    0.000734   0.528774  -0.022133  -0.019350   0.000000  -0.000005
    27  H   -0.000165  -0.022133   0.528773  -0.019349  -0.000011   0.000151
    28  H   -0.000052  -0.019350  -0.019349   0.524312  -0.000027  -0.000037
    29  H    0.000000   0.000000  -0.000011  -0.000027   0.529638  -0.023033
    30  H    0.000000  -0.000005   0.000151  -0.000037  -0.023033   0.533577
    31  H    0.000000  -0.000025   0.000122   0.001006  -0.017836  -0.018707
    32  H   -0.000001   0.000000   0.000000   0.000001  -0.000053  -0.000014
    33  H   -0.000001   0.000000  -0.000002   0.000001  -0.000239   0.000728
    34  H    0.000000   0.000000   0.000000   0.000000   0.000728  -0.000138
    35  H    0.000000   0.000000   0.000000   0.000000  -0.000001  -0.000001
    36  H    0.000000   0.000000   0.000000   0.000000  -0.000001   0.000000
    37  H    0.000000   0.000000   0.000000   0.000000   0.000007   0.000000
    38  H    0.000000   0.000000   0.000000   0.000000  -0.000002   0.000000
    39  H    0.000000   0.000000   0.000000   0.000000   0.000000   0.000000
    40  H    0.000000   0.000000   0.000000   0.000000   0.000001   0.000000
             31         32         33         34         35         36
     1  Si  -0.000046  -0.000046  -0.000011   0.000009  -0.000026   0.000087
     2  Si  -0.000944   0.000098  -0.000050   0.000024  -0.000049   0.000015
     3  Si  -0.021351  -0.021351  -0.014275  -0.014914  -0.000026   0.000025
     4  Si   0.000098  -0.000945   0.000377  -0.000199  -0.021297  -0.014914
     5  O   -0.000019  -0.000012   0.000000   0.000000   0.000001   0.000001
     6  O   -0.000012  -0.000019   0.000000  -0.000001  -0.001901  -0.001587
     7  O   -0.000766  -0.002088   0.001133  -0.001356  -0.001901   0.001047
     8  O   -0.002088  -0.000765  -0.000760   0.001185   0.000001   0.000001
     9  C    0.000000  -0.000001   0.000000   0.000000  -0.000002  -0.000004
    10  C   -0.000001   0.000000   0.000000   0.000000   0.000019   0.000029
    11  C   -0.000003  -0.000003   0.000014  -0.000002   0.000000   0.000000
    12  C    0.000414   0.000003   0.000004   0.000002   0.000000   0.000000
    13  C    0.393637   0.002091  -0.000050   0.000006   0.000019  -0.000001
    14  C    0.002091   0.393637   0.387614   0.387515  -0.000002   0.000001
    15  C   -0.000003  -0.000003   0.000001   0.000003   0.396420   0.388761
    16  C    0.000003   0.000414  -0.000015   0.000091   0.001919  -0.000055
    17  H    0.000000   0.000000   0.000000   0.000000   0.000000   0.000000
    18  H    0.000000   0.000000   0.000000   0.000000  -0.000001  -0.000004
    19  H    0.000000  -0.000002   0.000000   0.000000   0.000000  -0.000001
    20  H   -0.000002   0.000000   0.000000   0.000000   0.000013  -0.000002
    21  H    0.000000   0.000000   0.000000   0.000000  -0.000001   0.000007
    22  H    0.000000   0.000000   0.000000   0.000000  -0.000001   0.000000
    23  H    0.000000   0.000013  -0.000001  -0.000001   0.000000   0.000000
    24  H   -0.000001  -0.000002   0.000007   0.000000   0.000000   0.000000
    25  H    0.000000  -0.000001  -0.000001   0.000000   0.000000   0.000000
    26  H   -0.000025   0.000000   0.000000   0.000000   0.000000   0.000000
    27  H    0.000122   0.000000  -0.000002   0.000000   0.000000   0.000000
    28  H    0.001006   0.000001   0.000001   0.000000   0.000000   0.000000
    29  H   -0.017836  -0.000053  -0.000239   0.000728  -0.000001  -0.000001
    30  H   -0.018707  -0.000014   0.000728  -0.000138  -0.000001   0.000000
    31  H    0.520983  -0.000109  -0.000053  -0.000014   0.000013  -0.000001
    32  H   -0.000109   0.520984  -0.017836  -0.018707   0.000000   0.000000
    33  H   -0.000053  -0.017836   0.529637  -0.023032   0.000000   0.000000
    34  H   -0.000014  -0.018707  -0.023032   0.533578  -0.000001   0.000000
    35  H    0.000013   0.000000   0.000000  -0.000001   0.517862  -0.018125
    36  H   -0.000001   0.000000   0.000000   0.000000  -0.018125   0.533101
    37  H   -0.000002  -0.000001   0.000000  -0.000004  -0.018125  -0.023563
    38  H    0.000000   0.000122  -0.000011   0.000151  -0.000030  -0.000165
    39  H    0.000000  -0.000025   0.000000  -0.000005  -0.000030   0.000734
    40  H    0.000001   0.001007  -0.000027  -0.000037  -0.000107  -0.000052
             37         38         39         40
     1  Si   0.000025   0.000344  -0.000921   0.000178
     2  Si   0.000015  -0.000021  -0.000021  -0.000018
     3  Si   0.000086  -0.000922   0.000344   0.000178
     4  Si  -0.014915  -0.013415  -0.013415  -0.023456
     5  O    0.000001  -0.000003  -0.000007  -0.000091
     6  O    0.001047   0.001252  -0.000942  -0.001416
     7  O   -0.001587  -0.000942   0.001252  -0.001416
     8  O    0.000001  -0.000007  -0.000003  -0.000091
     9  C    0.000001  -0.000004   0.000216   0.000316
    10  C   -0.000001   0.000001  -0.000003  -0.000006
    11  C    0.000000   0.000000   0.000000  -0.000001
    12  C    0.000000   0.000000   0.000000   0.000001
    13  C    0.000029  -0.000003   0.000001  -0.000006
    14  C   -0.000004   0.000216  -0.000004   0.000316
    15  C    0.388762  -0.000122  -0.000122   0.002051
    16  C   -0.000055   0.386700   0.386701   0.393724
    17  H    0.000000   0.000000  -0.000011  -0.000027
    18  H    0.000000  -0.000005   0.000151  -0.000037
    19  H    0.000000  -0.000025   0.000122   0.001006
    20  H   -0.000001   0.000000   0.000000   0.000001
    21  H   -0.000001   0.000000  -0.000002   0.000001
    22  H    0.000000   0.000000   0.000000   0.000000
    23  H    0.000000   0.000000   0.000000   0.000000
    24  H    0.000000   0.000000   0.000000   0.000000
    25  H    0.000000   0.000000   0.000000   0.000000
    26  H    0.000000   0.000000   0.000000   0.000000
    27  H    0.000000   0.000000   0.000000   0.000000
    28  H    0.000000   0.000000   0.000000   0.000000
    29  H    0.000007  -0.000002   0.000000   0.000001
    30  H    0.000000   0.000000   0.000000   0.000000
    31  H   -0.000002   0.000000   0.000000   0.000001
    32  H   -0.000001   0.000122  -0.000025   0.001007
    33  H    0.000000  -0.000011   0.000000  -0.000027
    34  H   -0.000004   0.000151  -0.000005  -0.000037
    35  H   -0.018125  -0.000030  -0.000030  -0.000107
    36  H   -0.023563  -0.000165   0.000734  -0.000052
    37  H    0.533101   0.000734  -0.000165  -0.000052
    38  H    0.000734   0.528773  -0.022133  -0.019350
    39  H   -0.000165  -0.022133   0.528773  -0.019349
    40  H   -0.000052  -0.019350  -0.019349   0.524312
 Mulliken atomic charges:
              1
     1  Si   1.328277
     2  Si   1.321565
     3  Si   1.328277
     4  Si   1.321565
     5  O   -0.793858
     6  O   -0.793859
     7  O   -0.793859
     8  O   -0.793859
     9  C   -0.680258
    10  C   -0.680258
    11  C   -0.672021
    12  C   -0.695638
    13  C   -0.680257
    14  C   -0.680259
    15  C   -0.672021
    16  C   -0.695636
    17  H    0.136848
    18  H    0.135124
    19  H    0.143614
    20  H    0.143614
    21  H    0.136849
    22  H    0.135123
    23  H    0.145360
    24  H    0.134669
    25  H    0.134668
    26  H    0.138866
    27  H    0.138866
    28  H    0.142448
    29  H    0.136847
    30  H    0.135124
    31  H    0.143614
    32  H    0.143614
    33  H    0.136849
    34  H    0.135123
    35  H    0.145360
    36  H    0.134669
    37  H    0.134668
    38  H    0.138866
    39  H    0.138866
    40  H    0.142447
 Sum of Mulliken atomic charges =   0.00000
 Mulliken charges with hydrogens summed into heavy atoms:
              1
     1  Si   1.328277
     2  Si   1.321565
     3  Si   1.328277
     4  Si   1.321565
     5  O   -0.793858
     6  O   -0.793859
     7  O   -0.793859
     8  O   -0.793859
     9  C   -0.264672
    10  C   -0.264672
    11  C   -0.257323
    12  C   -0.275457
    13  C   -0.264671
    14  C   -0.264673
    15  C   -0.257324
    16  C   -0.275456
 Sum of Mulliken charges with hydrogens summed into heavy atoms =   0.00000
 Electronic spatial extent (au):  <R**2>=           5430.1329
 Charge=              0.0000 electrons
 Dipole moment (field-independent basis, Debye):
    X=              0.0000    Y=             -0.0001    Z=              0.0000  Tot=              0.0001
 Quadrupole moment (field-independent basis, Debye-Ang):
   XX=           -122.7537   YY=           -122.9208   ZZ=           -127.2595
   XY=              0.0000   XZ=             -0.0002   YZ=             -1.9361
 Traceless Quadrupole moment (field-independent basis, Debye-Ang):
   XX=              1.5576   YY=              1.3905   ZZ=             -2.9481
   XY=              0.0000   XZ=             -0.0002   YZ=             -1.9361
 Octapole moment (field-independent basis, Debye-Ang**2):
  XXX=              0.0000  YYY=             -0.0005  ZZZ=             -0.0001  XYY=              0.0000
  XXY=             -0.0001  XXZ=              0.0006  XZZ=              0.0000  YZZ=              0.0004
  YYZ=             -0.0006  XYZ=              0.0000
 Hexadecapole moment (field-independent basis, Debye-Ang**3):
 XXXX=          -3168.0387 YYYY=          -3077.3563 ZZZZ=          -1151.3329 XXXY=              0.0078
 XXXZ=              0.0010 YYYX=             -0.0055 YYYZ=            -13.3134 ZZZX=              0.0019
 ZZZY=             20.4619 XXYY=          -1013.8573 XXZZ=           -765.8077 YYZZ=           -744.4345
 XXYZ=              7.4671 YYXZ=             -0.0014 ZZXY=             -0.0006
 N-N= 1.882306782219D+03 E-N=-7.975459827636D+03  KE= 1.772783895812D+03
 No NMR shielding tensors so no spin-rotation constants.
 Leave Link  601 at Tue Oct  4 11:55:26 2016, MaxMem= 2147483648 cpu:       2.5
 (Enter /opt/g09/l701.exe)
 Compute integral first derivatives.
 ... and contract with generalized density number  0.
 Leave Link  701 at Tue Oct  4 11:55:26 2016, MaxMem= 2147483648 cpu:       2.9
 (Enter /opt/g09/l702.exe)
 L702 exits ... SP integral derivatives will be done elsewhere.
 Leave Link  702 at Tue Oct  4 11:55:26 2016, MaxMem= 2147483648 cpu:       0.3
 (Enter /opt/g09/l703.exe)
 Compute integral first derivatives, UseDBF=F ICtDFT=           0.
 Integral derivatives from FoFDir, PRISM(SPDF).
 Calling FoFJK, ICntrl=      2127 FMM=F ISym2X=0 I1Cent= 0 IOpClX= 0 NMat=1 NMatS=1 NMatT=0.
 FoFCou: FMM=F IPFlag=           0 FMFlag=      100000 FMFlg1=         800
         NFxFlg=           0 DoJE=F BraDBF=F KetDBF=F FulRan=T
         Omega=  0.000000  0.000000  1.000000  0.000000  0.000000 ICntrl=    2127 IOpCl=  0
         NMat0=    1 NMatS0=    1 NMatT0=    0 NMatD0=    1 NMtDS0=    0 NMtDT0=    0
         I1Cent=           0 NGrid=           0.
 Symmetry not used in FoFCou.
 Leave Link  703 at Tue Oct  4 11:56:01 2016, MaxMem= 2147483648 cpu:     275.4
 (Enter /opt/g09/l716.exe)
 Dipole        =-4.63306955D-07-2.02578807D-05-1.62230735D-06
 -------------------------------------------------------------------
 Center     Atomic                   Forces (Hartrees/Bohr)
 Number     Number              X              Y              Z
 -------------------------------------------------------------------
      1       14          -0.000171988    0.000000272    0.000000347
      2       14          -0.000000159   -0.000148110    0.000025862
      3       14           0.000171956   -0.000000156    0.000000077
      4       14           0.000000438    0.000148869   -0.000025814
      5        8          -0.000055511   -0.000091384   -0.000082741
      6        8          -0.000056270    0.000090769    0.000082622
      7        8           0.000055747    0.000091075    0.000082685
      8        8           0.000055747   -0.000091247   -0.000082569
      9        6          -0.000057157   -0.000006273   -0.000031508
     10        6          -0.000056692    0.000005890    0.000031172
     11        6          -0.000000241    0.000004963   -0.000010149
     12        6           0.000000577   -0.000041140    0.000041644
     13        6           0.000056736    0.000006488    0.000031339
     14        6           0.000056876   -0.000006155   -0.000031355
     15        6           0.000000548   -0.000005412    0.000010572
     16        6          -0.000000093    0.000041313   -0.000040989
     17        1          -0.000000332    0.000011221    0.000009150
     18        1          -0.000002919   -0.000012286   -0.000014485
     19        1           0.000004202   -0.000011919    0.000029834
     20        1           0.000004100    0.000011657   -0.000029810
     21        1          -0.000000260   -0.000010917   -0.000008950
     22        1          -0.000003225    0.000012502    0.000014373
     23        1          -0.000000095   -0.000013430    0.000010174
     24        1          -0.000008351   -0.000006363   -0.000006266
     25        1           0.000008705   -0.000006250   -0.000006264
     26        1           0.000011216    0.000016139    0.000000267
     27        1          -0.000011743    0.000016216    0.000000254
     28        1          -0.000000071   -0.000001606   -0.000004022
     29        1           0.000000391   -0.000011211   -0.000009094
     30        1           0.000003098    0.000012097    0.000014509
     31        1          -0.000004085    0.000011927   -0.000029922
     32        1          -0.000004094   -0.000011661    0.000029811
     33        1           0.000000097    0.000011026    0.000008969
     34        1           0.000003313   -0.000012274   -0.000014385
     35        1           0.000000044    0.000013563   -0.000010590
     36        1           0.000008117    0.000006555    0.000006226
     37        1          -0.000008759    0.000006232    0.000006168
     38        1          -0.000011218   -0.000016225   -0.000000294
     39        1           0.000011286   -0.000015993   -0.000000350
     40        1           0.000000069    0.000001237    0.000003502
 -------------------------------------------------------------------
 Cartesian Forces:  Max     0.000171988 RMS     0.000041927
 Leave Link  716 at Tue Oct  4 11:56:01 2016, MaxMem= 2147483648 cpu:       0.3
 (Enter /opt/g09/l121.exe)
 TRJ-TRJ-TRJ-TRJ-TRJ-TRJ-TRJ-TRJ-TRJ-TRJ-TRJ-TRJ-TRJ-TRJ-TRJ-TRJ-TRJ-TRJ

 ADMP step      0
 GnVelC Random: Velocity
 I=    1 X=   6.776577902369D-01 Y=   7.429033107124D-01 Z=   8.096585665196D-01
 I=    2 X=   5.918403073752D-01 Y=   3.410950604214D-01 Z=   2.852121111959D-01
 I=    3 X=   1.912162494242D-01 Y=   7.195232935778D-01 Z=   5.673842562704D-01
 I=    4 X=   4.035037873473D-02 Y=   3.464603346208D-01 Z=   5.858358356755D-01
 I=    5 X=   6.576648108690D-01 Y=   9.959465304093D-02 Z=   8.182893439322D-01
 I=    6 X=   8.670178057043D-01 Y=   3.534648908784D-01 Z=   7.267570405295D-01
 I=    7 X=   1.025500711929D-03 Y=   8.939887521728D-01 Z=   7.731926121609D-01
 I=    8 X=   9.932536737017D-01 Y=   5.939934533863D-01 Z=   1.829446915654D-01
 I=    9 X=   5.054578524157D-01 Y=   7.770446094561D-01 Z=   9.261531115822D-01
 I=   10 X=   9.815086095314D-01 Y=   6.419385499426D-01 Z=   2.810935657148D-01
 I=   11 X=   9.936315650832D-01 Y=   4.832333429859D-01 Z=   2.056216312214D-01
 I=   12 X=   7.970811004294D-01 Y=   2.893434260126D-01 Z=   2.184070261305D-01
 I=   13 X=   4.528299356652D-01 Y=   4.840339715736D-01 Z=   2.196478698625D-01
 I=   14 X=   2.400970460947D-01 Y=   8.524123138214D-01 Z=   9.521498969773D-02
 I=   15 X=   6.664348270894D-01 Y=   1.112309135018D-01 Z=   7.487522170761D-01
 I=   16 X=   7.537419652212D-01 Y=   5.432707802619D-01 Z=   6.402394317401D-01
 I=   17 X=   6.938201216239D-01 Y=   4.065712452743D-01 Z=   4.493823638380D-01
 I=   18 X=   6.047535043279D-01 Y=   2.796494855834D-01 Z=   3.625962705420D-02
 I=   19 X=   4.392407634703D-01 Y=   5.894692012019D-01 Z=   8.514689753030D-01
 I=   20 X=   1.318822720409D-01 Y=   5.451881917798D-01 Z=   5.038940841811D-01
[...]
 (Enter /opt/g09/l202.exe)
                          Input orientation:                          
 ---------------------------------------------------------------------
 Center     Atomic      Atomic             Coordinates (Angstroms)
 Number     Number       Type             X           Y           Z
 ---------------------------------------------------------------------
      1         14           0        2.283671    0.005194   -0.003121
      2         14           0       -0.020655    2.213068    0.061663
      3         14           0       -2.337213   -0.007049   -0.012214
      4         14           0       -0.046682   -2.261450   -0.107213
      5          8           0        1.335547    1.276639    0.317000
      6          8           0        1.359910   -1.328224   -0.296536
      7          8           0       -1.393395   -1.292691   -0.287786
      8          8           0       -1.325998    1.303761    0.268046
      9          6           0        3.338117   -0.272907    1.555352
     10          6           0        3.374733    0.345956   -1.535734
     11          6           0        0.044181    3.559463    1.374437
     12          6           0        0.030120    2.933496   -1.643694
     13          6           0       -3.339145    0.302100   -1.525304
     14          6           0       -3.330730   -0.295911    1.498109
     15          6           0        0.017972   -3.582911   -1.375873
     16          6           0        0.040338   -2.914986    1.651620
     17          1           0        4.033882    0.545436    1.767242
     18          1           0        4.045400   -1.087101    1.367422
     19          1           0        2.829654   -0.367525    2.519797
     20          1           0        2.670003    0.628236   -2.339778
     21          1           0        3.985734   -0.536160   -1.743502
     22          1           0        4.101081    1.149372   -1.429738
     23          1           0        0.065299    3.166684    2.399211
     24          1           0       -0.782691    4.300209    1.313063
     25          1           0        0.902185    4.241172    1.423632
     26          1           0        0.921010    3.536615   -1.760036
     27          1           0       -0.845074    3.631411   -1.679288
     28          1           0        0.082365    2.018629   -2.308420
     29          1           0       -3.961555   -0.603576   -1.547337
     30          1           0       -3.858732    1.215826   -1.150350
     31          1           0       -2.628380    0.528443   -2.332332
     32          1           0       -2.599078   -0.428321    2.314145
     33          1           0       -3.844560    0.631445    1.854372
     34          1           0       -3.908653   -1.238978    1.475040
     35          1           0        0.014932   -2.995365   -2.304287
     36          1           0        1.033318   -3.992888   -1.181619
     37          1           0       -0.840126   -4.242640   -1.185438
     38          1           0       -0.867885   -3.495128    1.970207
     39          1           0        1.024796   -3.357513    1.876332
     40          1           0        0.071816   -2.095354    2.373287
 ---------------------------------------------------------------------
                    Distance matrix (angstroms):
                    1          2          3          4          5
     1  Si   0.000000
     2  Si   3.191993   0.000000
     3  Si   4.620909   3.209490   0.000000
     4  Si   3.252545   4.477780   3.215258   0.000000
     5  O    1.618020   1.667747   3.904537   3.822119   0.000000
     6  O    1.648463   3.817724   3.936376   1.698603   2.676253
     7  O    3.909776   3.781121   1.618520   1.668754   3.796623
     8  O    3.845714   1.604168   1.679085   3.806337   2.662133
     9  C    1.902114   4.437626   5.893837   4.263249   2.818669
    10  C    1.911921   4.191234   5.922166   4.532694   2.908105
    11  C    4.421065   1.881584   4.507088   6.007210   2.827912
    12  C    4.042885   1.851982   4.112518   5.417946   2.879867
    13  C    5.832774   4.145195   1.840892   4.407163   5.118257
    14  C    5.819437   4.394877   1.830735   4.150347   5.063800
    15  C    4.460083   5.971715   4.493690   1.833013   5.311973
    16  C    4.037098   5.369229   4.108185   1.878344   4.585684
    17  H    2.547408   4.704175   6.637963   5.295582   3.149424
    18  H    2.484992   5.397122   6.618735   4.505417   3.746192
    19  H    2.608089   4.563566   5.765200   4.331448   3.128569
    20  H    2.448959   3.939321   5.558179   4.551374   3.042970
    21  H    2.493794   5.183438   6.577004   4.681287   3.815154
    22  H    2.578248   4.510480   6.693154   5.530525   3.273449
    23  H    4.548339   2.526044   4.653990   5.979912   3.085677
    24  H    5.438940   2.550070   4.767114   6.753833   3.823748
    25  H    4.678423   2.611474   5.531974   6.747439   3.193884
    26  H    4.173072   2.440716   5.121372   6.106211   3.097323
    27  H    5.074252   2.392128   4.271301   6.150989   3.779580
    28  H    3.770155   2.380276   3.902601   4.814670   3.002307
    29  H    6.462046   5.104220   2.313209   4.488734   5.922014
    30  H    6.364816   4.146602   2.259602   5.264154   5.397903
    31  H    5.461434   3.920384   2.398850   4.404524   4.826125
    32  H    5.422074   4.324220   2.378653   3.967123   4.730408
    33  H    6.434103   4.509722   2.482723   5.161448   5.441811
    34  H    6.486740   5.388023   2.489778   4.296952   5.930516
    35  H    4.409750   5.720731   4.440295   2.317231   5.183164
    36  H    4.351654   6.416424   5.349289   2.306214   5.486813
    37  H    5.403709   6.625931   4.643054   2.391074   6.119911
    38  H    5.106718   6.078144   4.272658   2.551864   5.509806
    39  H    4.052765   5.951249   5.108358   2.506765   4.899332
    40  H    3.866770   4.890261   3.981840   2.488878   4.146766
                    6          7          8          9         10
     6  O    0.000000
     7  O    2.753548   0.000000
     8  O    3.802657   2.656135   0.000000
     9  C    2.908004   5.179221   5.088910   0.000000
    10  C    2.897931   5.193995   5.125220   3.152641   0.000000
    11  C    5.330364   5.326632   2.861762   5.056660   5.467020
    12  C    4.663199   4.661066   2.854792   5.608721   4.230065
    13  C    5.123372   2.803703   2.876142   7.376104   6.714029
    14  C    5.127233   2.817136   2.844460   6.669132   7.387789
    15  C    2.837143   2.901896   5.328066   5.529157   5.170048
    16  C    2.838027   2.906670   4.645318   4.226724   5.648996
    17  H    3.862630   6.087462   5.617024   1.094839   3.374007
    18  H    3.168400   5.688803   5.981368   1.094750   3.306322
    19  H    3.318859   5.154862   5.013284   1.094368   4.153733
    20  H    3.117518   4.940834   4.819243   4.053452   1.105809
    21  H    3.100972   5.623742   5.970438   3.372113   1.092985
    22  H    3.864796   6.120212   5.688540   3.393487   1.088253
    23  H    5.398821   5.406826   3.154053   4.822263   5.864525
    24  H    6.233844   5.849462   3.219618   6.160613   6.405930
    25  H    5.846937   6.230753   3.863750   5.131085   5.481246
    26  H    5.099130   5.553934   3.761355   5.598809   4.031300
    27  H    5.601065   5.146233   3.072678   6.573103   5.349915
    28  H    4.108676   4.150382   3.022036   5.547954   3.772872
    29  H    5.514308   2.942242   3.725549   7.938591   7.397490
    30  H    5.868170   3.621403   2.904191   7.831462   7.295767
    31  H    4.847488   3.003646   3.009865   7.166264   6.058485
    32  H    4.826910   2.995138   2.967721   5.987504   7.148951
    33  H    5.962652   3.781448   3.051491   7.245559   7.980759
    34  H    5.559155   3.071964   3.820009   7.311321   8.038936
    35  H    2.935879   2.991448   5.186278   5.775132   4.800350
    36  H    2.826741   3.738842   5.976821   5.161527   4.942994
    37  H    3.758207   3.132744   5.754238   6.381882   6.240429
    38  H    3.846643   3.197722   5.112392   5.314627   6.711583
    39  H    2.991935   3.846368   5.462627   3.869015   5.556985
    40  H    3.061965   3.142041   4.235553   3.828714   5.670070
                   11         12         13         14         15
    11  C    0.000000
    12  C    3.082393   0.000000
    13  C    5.519584   4.276705   0.000000
    14  C    5.125350   5.620970   3.081998   0.000000
    15  C    7.653653   6.521919   5.136718   5.502540   0.000000
    16  C    6.480381   6.712968   5.644767   4.271677   3.100377
    17  H    5.015613   5.776453   8.078465   7.417399   6.561247
    18  H    6.131913   6.430745   8.051661   7.419592   5.474936
    19  H    4.948934   6.005729   7.407113   6.244942   5.781048
    20  H    5.411324   3.573197   6.072857   7.182772   5.069137
    21  H    6.483172   5.262637   7.375916   8.006023   5.016073
    22  H    5.489115   4.449898   7.488923   8.117446   6.250535
    23  H    1.097671   4.049776   5.932782   4.933007   7.733727
    24  H    1.111840   3.357228   5.529617   5.258427   8.367498
    25  H    1.096959   3.446593   6.496260   6.205500   8.356755
    26  H    3.254885   1.082115   5.354074   6.586429   7.186843
    27  H    3.181382   1.119963   4.162741   5.630115   7.272094
    28  H    3.992376   1.132065   3.907233   5.612127   5.679000
    29  H    6.474069   5.334194   1.099149   3.125274   4.974180
    30  H    5.205758   4.279831   1.116001   3.094910   6.173133
    31  H    5.483594   3.650497   1.098959   3.980594   4.982091
    32  H    4.875683   5.820566   3.977762   1.103976   5.515127
    33  H    4.891414   5.705178   3.433093   1.118451   6.566158
    34  H    6.217720   6.530695   3.420721   1.106302   5.388888
    35  H    7.516624   5.965568   4.767591   5.739226   1.098714
    36  H    8.034290   7.013894   6.138686   6.316130   1.112090
    37  H    8.258799   7.243221   5.197621   5.383419   1.099017
    38  H    7.138210   7.429259   5.722295   4.064907   3.462471
    39  H    7.004146   7.277139   6.633844   5.337328   3.411941
    40  H    5.742422   6.436396   5.708017   3.947309   4.033848
                   16         17         18         19         20
    16  C    0.000000
    17  H    5.285479   0.000000
    18  H    4.411627   1.680823   0.000000
    19  H    3.876026   1.688195   1.823127   0.000000
    20  H    5.949859   4.328352   4.310154   4.963113   0.000000
    21  H    5.722920   3.673893   3.159897   4.420483   1.855400
    22  H    6.519463   3.254218   3.581761   4.417728   1.774187
    23  H    6.127498   4.797914   5.916120   4.488522   5.973794
    24  H    7.269872   6.124049   7.234399   6.024366   6.224768
    25  H    7.211475   4.856342   6.186554   5.114373   5.508334
    26  H    7.351064   5.574837   6.396996   6.099361   3.442927
    27  H    7.398258   6.723542   7.447384   6.864942   4.670232
    28  H    6.326472   5.864793   6.234021   6.045908   2.937694
    29  H    5.620595   8.731190   8.534690   7.919458   6.791383
    30  H    6.333830   8.441275   8.609179   7.791758   6.662161
    31  H    5.903485   7.822566   7.799841   7.357721   5.299329
    32  H    3.686320   6.726326   6.743838   5.432966   7.109046
    33  H    5.264097   7.879394   8.089622   6.781288   7.747932
    34  H    4.293567   8.145758   7.956231   6.874280   7.830584
    35  H    3.956805   6.728044   5.776469   6.172519   4.492343
    36  H    3.189847   6.188340   4.900393   5.483663   5.037346
    37  H    3.253733   7.443114   6.351605   6.497119   6.113832
    38  H    1.123802   6.355680   5.504753   4.873986   6.935038
    39  H    1.102490   4.929454   3.812848   3.551280   6.030629
    40  H    1.092517   4.799899   4.221102   3.257687   6.031708
                   21         22         23         24         25
    21  H    0.000000
    22  H    1.718362   0.000000
    23  H    6.800215   5.917595   0.000000
    24  H    7.447881   6.426660   1.784287   0.000000
    25  H    6.508603   5.285252   1.675307   1.689532   0.000000
    26  H    5.097088   3.990098   4.262443   3.595777   3.260751
    27  H    6.380398   5.539607   4.204629   3.066814   3.612871
    28  H    4.699188   4.204494   4.845628   4.366815   4.420409
    29  H    7.949995   8.251833   6.782747   6.506471   7.480255
    30  H    8.059587   7.964992   5.639437   5.004383   6.200358
    31  H    6.725073   6.818055   6.050101   5.560728   6.352678
    32  H    7.735365   7.835682   4.475512   5.163373   5.903899
    33  H    8.696063   8.613178   4.691619   4.809146   5.978901
    34  H    8.554199   8.848604   6.004686   6.362426   7.292383
    35  H    4.704194   5.885600   7.752179   8.182104   8.188533
    36  H    4.580551   5.992960   8.063428   8.848547   8.637377
    37  H    6.110512   7.317718   8.280555   8.900903   9.045328
    38  H    6.790047   7.604053   6.740520   7.823450   7.955013
    39  H    5.461720   6.380097   6.615073   7.888282   7.613146
    40  H    5.890483   6.420764   5.262106   6.538920   6.460876
                   26         27         28         29         30
    26  H    0.000000
    27  H    1.770468   0.000000
    28  H    1.818882   1.963929   0.000000
    29  H    6.405143   5.259751   4.879395   0.000000
    30  H    5.348244   3.898329   4.185435   1.865046   0.000000
    31  H    4.687728   3.638002   3.093439   1.917039   1.839387
    32  H    6.686605   5.958647   5.877569   4.098549   4.036419
    33  H    6.649407   5.521184   5.888452   3.620855   3.061055
    34  H    7.523141   6.561707   6.391776   3.088900   3.594611
    35  H    6.616944   6.711512   5.014449   4.701710   5.837035
    36  H    7.552522   7.868034   6.189695   6.047308   7.145897
    37  H    7.996785   7.889524   6.427719   4.808022   6.237633
    38  H    8.158447   8.006678   7.043518   5.504996   6.393445
    39  H    7.795059   8.061260   6.877735   6.646005   7.343371
    40  H    7.037369   7.075301   6.232443   5.819345   6.231304
                   31         32         33         34         35
    31  H    0.000000
    32  H    4.744050   0.000000
    33  H    4.360986   1.698741   0.000000
    34  H    4.388504   1.753924   1.909576   0.000000
    35  H    4.405123   5.895140   6.733786   5.723874   0.000000
    36  H    5.930819   6.174205   7.375323   6.250195   1.814537
    37  H    5.222687   5.467177   6.482575   5.051335   1.881128
    38  H    6.148196   3.538449   5.089461   3.818596   4.393226
    39  H    6.794057   4.680204   6.294672   5.384064   4.316081
    40  H    6.026461   3.148995   4.800282   4.169456   4.763713
                   36         37         38         39         40
    36  H    0.000000
    37  H    1.890021   0.000000
    38  H    3.714343   3.243091   0.000000
    39  H    3.123273   3.692671   1.899998   0.000000
    40  H    4.142762   4.255232   1.733459   1.657764   0.000000
 Symmetry turned off by external request.
 Stoichiometry    C8H24O4Si4
 Framework group  C1[X(C8H24O4Si4)]
 Deg. of freedom   114
 Full point group                 C1      NOp   1
 Rotational constants (GHZ):      0.3681509      0.3534322      0.2322060
 Leave Link  202 at Tue Oct  4 14:29:06 2016, MaxMem= 2147483648 cpu:       0.0
 (Enter /opt/g09/l301.exe)
 Standard basis: 6-311G(d,p) (6D, 10F)
 Ernie: Thresh=  0.10000D-02 Tol=  0.10000D-05 Strict=F.
 Integral buffers will be    131072 words long.
 Raffenetti 2 integral format.
 Two-electron integral symmetry is turned off.
   480 basis functions,   760 primitive gaussians,   480 cartesian basis functions
    80 alpha electrons       80 beta electrons
       nuclear repulsion energy      1881.0720905641 Hartrees.
 IExCor= 1009 DFT=T Ex+Corr=PBE1PBE ExCW=0 ScaHFX=  0.250000
 ScaDFX=  0.750000  0.750000  1.000000  1.000000 ScalE2=  1.000000  1.000000
 IRadAn=      0 IRanWt=     -1 IRanGd=            0 ICorTp=0
 NAtoms=   40 NActive=   40 NUniq=   40 SFac= 7.50D-01 NAtFMM=   80 NAOKFM=F Big=F
 Leave Link  301 at Tue Oct  4 14:29:06 2016, MaxMem= 2147483648 cpu:       0.5
 (Enter /opt/g09/l302.exe)
 NPDir=0 NMtPBC=     1 NCelOv=     1 NCel=       1 NClECP=     1 NCelD=      1
         NCelK=      1 NCelE2=     1 NClLst=     1 CellRange=     0.0.
 One-electron integrals computed using PRISM.
 NBasis=   480 RedAO= T  NBF=   480
 NBsUse=   480 1.00D-06 NBFU=   480
 Precomputing XC quadrature grid using
 IXCGrd= 2 IRadAn=           0 IRanWt=          -1 IRanGd=           0 AccXCQ= 1.00D-10.
 NRdTot=    2559 NPtTot=      323500 NUsed=      341946 NTot=      341978
 NSgBfM=   460   464   465   465   465 NAtAll=    40    40.
 Leave Link  302 at Tue Oct  4 14:29:07 2016, MaxMem= 2147483648 cpu:       6.4
 (Enter /opt/g09/l303.exe)
 DipDrv:  MaxL=1.
 Leave Link  303 at Tue Oct  4 14:29:07 2016, MaxMem= 2147483648 cpu:       0.8
 (Enter /opt/g09/l401.exe)
 Initial guess read from the read-write file.
 B after Tr=     0.000000    0.000000    0.000000
         Rot=    1.000000    0.000000    0.000000    0.000000 Ang=   0.00 deg.
 Guess basis will be translated and rotated to current coordinates.
 Generating alternative initial guess.
 Harris functional with IExCor= 1009 diagonalized for initial guess.
 ExpMin= 6.54D-02 ExpMax= 6.94D+04 ExpMxC= 2.33D+03 IAcc=2 IRadAn=         0 AccDes= 0.00D+00
 HarFok:  IExCor= 1009 AccDes= 0.00D+00 IRadAn=         0 IDoV= 1
 ScaDFX=  1.000000  1.000000  1.000000  1.000000
 FoFCou: FMM=F IPFlag=           0 FMFlag=      100000 FMFlg1=           0
         NFxFlg=           0 DoJE=T BraDBF=F KetDBF=T FulRan=T
         Omega=  0.000000  0.000000  1.000000  0.000000  0.000000 ICntrl=     500 IOpCl=  0
         NMat0=    1 NMatS0=    1 NMatT0=    0 NMatD0=    1 NMtDS0=    0 NMtDT0=    0
         I1Cent=           4 NGrid=           0.
 Symmetry not used in FoFCou.
 Harris En= -1778.32047221951    
 Leave Link  401 at Tue Oct  4 14:29:11 2016, MaxMem= 2147483648 cpu:      34.2
 (Enter /opt/g09/l502.exe)
 Closed shell SCF:
 Requested convergence on RMS density matrix=1.00D-08 within 128 cycles.
 Requested convergence on MAX density matrix=1.00D-06.
 Requested convergence on             energy=1.00D-06.
 No special actions if energy rises.
 Using DIIS extrapolation, IDIIS=  1040.
 Two-electron integral symmetry not used.
       341573 words used for storage of precomputed grid.
 IEnd=     1057719 IEndB=     1057719 NGot=  2147483648 MDV=  2146673450
 LenX=  2146673450 LenY=  2146442570
 Using Cholesky orthonormal basis.
 Fock matrices will be formed incrementally for  20 cycles.

 Cycle   1  Pass 1  IDiag  1:
 FoFCou: FMM=F IPFlag=           0 FMFlag=      100000 FMFlg1=           0
         NFxFlg=           0 DoJE=F BraDBF=F KetDBF=F FulRan=T
         Omega=  0.000000  0.000000  1.000000  0.000000  0.000000 ICntrl=       0 IOpCl=  0
         NMat0=    1 NMatS0=    1 NMatT0=    0 NMatD0=    1 NMtDS0=    0 NMtDT0=    0
         I1Cent=           0 NGrid=           0.
 Symmetry not used in FoFCou.
 E= -1777.63769059701    
 DIIS: error= 1.27D-04 at cycle   1 NSaved=   1.
 NSaved= 1 IEnMin= 1 EnMin= -1777.63769059701     IErMin= 1 ErrMin= 1.27D-04
 ErrMax= 1.27D-04 EMaxC= 1.00D-01 BMatC= 1.54D-05 BMatP= 1.54D-05
 IDIUse=3 WtCom= 9.99D-01 WtEn= 1.27D-03
 Coeff-Com:  0.100D+01
 Coeff-En:   0.100D+01
 Coeff:      0.100D+01
 Gap=     0.296 Goal=   None    Shift=    0.000
 RMSDP=7.88D-06 MaxDP=3.97D-04              OVMax= 7.08D-04

 Cycle   2  Pass 1  IDiag  1:
 RMSU=  5.57D-06    CP:  1.00D+00
 E= -1777.63770675445     Delta-E=       -0.000016157444 Rises=F Damp=F
 DIIS: error= 5.04D-05 at cycle   2 NSaved=   2.
 NSaved= 2 IEnMin= 2 EnMin= -1777.63770675445     IErMin= 2 ErrMin= 5.04D-05
 ErrMax= 5.04D-05 EMaxC= 1.00D-01 BMatC= 1.40D-06 BMatP= 1.54D-05
 IDIUse=1 WtCom= 1.00D+00 WtEn= 0.00D+00
 Coeff-Com:  0.119D+00 0.881D+00
 Coeff:      0.119D+00 0.881D+00
 Gap=     0.296 Goal=   None    Shift=    0.000
 RMSDP=3.45D-06 MaxDP=3.13D-04 DE=-1.62D-05 OVMax= 3.45D-04

 Cycle   3  Pass 1  IDiag  1:
 RMSU=  2.40D-06    CP:  1.00D+00  9.20D-01
